+ 1 1 4 tcp 40 ------- 0 1.0 3.0 0 0
- 1 1 4 tcp 40 ------- 0 1.0 3.0 0 0
+ 1 0 4 tcp 40 ------- 1 0.0 3.1 0 1
- 1 0 4 tcp 40 ------- 1 0.0 3.1 0 1
+ 1 1 4 tcp 40 ------- 2 1.1 3.2 0 2
+ 1 1 4 tcp 40 ------- 3 1.2 3.3 0 3
+ 1 1 4 tcp 40 ------- 4 1.3 3.4 0 4
+ 1 1 4 tcp 40 ------- 5 1.4 3.5 0 5
+ 1 0 4 tcp 40 ------- 6 0.1 2.0 0 6
+ 1 0 4 tcp 40 ------- 7 0.2 2.1 0 7
+ 1 0 4 tcp 40 ------- 8 0.3 2.2 0 8
+ 1 1 4 tcp 40 ------- 9 1.5 3.6 0 9
- 1.000032 1 4 tcp 40 ------- 2 1.1 3.2 0 2
- 1.000032 0 4 tcp 40 ------- 6 0.1 2.0 0 6
- 1.000064 1 4 tcp 40 ------- 3 1.2 3.3 0 3
- 1.000064 0 4 tcp 40 ------- 7 0.2 2.1 0 7
- 1.000096 1 4 tcp 40 ------- 4 1.3 3.4 0 4
- 1.000096 0 4 tcp 40 ------- 8 0.3 2.2 0 8
- 1.000128 1 4 tcp 40 ------- 5 1.4 3.5 0 5
- 1.00016 1 4 tcp 40 ------- 9 1.5 3.6 0 9
r 1.010032 1 4 tcp 40 ------- 0 1.0 3.0 0 0
+ 1.010032 4 5 tcp 40 ------- 0 1.0 3.0 0 0
d 1.010032 4 5 tcp 40 ------- 0 1.0 3.0 0 0
r 1.010032 0 4 tcp 40 ------- 1 0.0 3.1 0 1
+ 1.010032 4 5 tcp 40 ------- 1 0.0 3.1 0 1
d 1.010032 4 5 tcp 40 ------- 1 0.0 3.1 0 1
r 1.010064 1 4 tcp 40 ------- 2 1.1 3.2 0 2
+ 1.010064 4 5 tcp 40 ------- 2 1.1 3.2 0 2
d 1.010064 4 5 tcp 40 ------- 2 1.1 3.2 0 2
r 1.010064 0 4 tcp 40 ------- 6 0.1 2.0 0 6
+ 1.010064 4 5 tcp 40 ------- 6 0.1 2.0 0 6
d 1.010064 4 5 tcp 40 ------- 6 0.1 2.0 0 6
r 1.010096 1 4 tcp 40 ------- 3 1.2 3.3 0 3
+ 1.010096 4 5 tcp 40 ------- 3 1.2 3.3 0 3
d 1.010096 4 5 tcp 40 ------- 3 1.2 3.3 0 3
r 1.010096 0 4 tcp 40 ------- 7 0.2 2.1 0 7
+ 1.010096 4 5 tcp 40 ------- 7 0.2 2.1 0 7
d 1.010096 4 5 tcp 40 ------- 7 0.2 2.1 0 7
r 1.010128 1 4 tcp 40 ------- 4 1.3 3.4 0 4
+ 1.010128 4 5 tcp 40 ------- 4 1.3 3.4 0 4
d 1.010128 4 5 tcp 40 ------- 4 1.3 3.4 0 4
r 1.010128 0 4 tcp 40 ------- 8 0.3 2.2 0 8
+ 1.010128 4 5 tcp 40 ------- 8 0.3 2.2 0 8
d 1.010128 4 5 tcp 40 ------- 8 0.3 2.2 0 8
r 1.01016 1 4 tcp 40 ------- 5 1.4 3.5 0 5
+ 1.01016 4 5 tcp 40 ------- 5 1.4 3.5 0 5
d 1.01016 4 5 tcp 40 ------- 5 1.4 3.5 0 5
r 1.010192 1 4 tcp 40 ------- 9 1.5 3.6 0 9
+ 1.010192 4 5 tcp 40 ------- 9 1.5 3.6 0 9
d 1.010192 4 5 tcp 40 ------- 9 1.5 3.6 0 9
+ 4 1 4 tcp 40 ---A--- 0 1.0 3.0 0 10
- 4 1 4 tcp 40 ---A--- 0 1.0 3.0 0 10
+ 4 0 4 tcp 40 ---A--- 1 0.0 3.1 0 11
- 4 0 4 tcp 40 ---A--- 1 0.0 3.1 0 11
+ 4 1 4 tcp 40 ---A--- 2 1.1 3.2 0 12
+ 4 1 4 tcp 40 ---A--- 3 1.2 3.3 0 13
+ 4 1 4 tcp 40 ---A--- 4 1.3 3.4 0 14
+ 4 1 4 tcp 40 ---A--- 5 1.4 3.5 0 15
+ 4 0 4 tcp 40 ---A--- 6 0.1 2.0 0 16
+ 4 0 4 tcp 40 ---A--- 7 0.2 2.1 0 17
+ 4 0 4 tcp 40 ---A--- 8 0.3 2.2 0 18
+ 4 1 4 tcp 40 ---A--- 9 1.5 3.6 0 19
- 4.000032 1 4 tcp 40 ---A--- 2 1.1 3.2 0 12
- 4.000032 0 4 tcp 40 ---A--- 6 0.1 2.0 0 16
- 4.000064 1 4 tcp 40 ---A--- 3 1.2 3.3 0 13
- 4.000064 0 4 tcp 40 ---A--- 7 0.2 2.1 0 17
- 4.000096 1 4 tcp 40 ---A--- 4 1.3 3.4 0 14
- 4.000096 0 4 tcp 40 ---A--- 8 0.3 2.2 0 18
- 4.000128 1 4 tcp 40 ---A--- 5 1.4 3.5 0 15
- 4.00016 1 4 tcp 40 ---A--- 9 1.5 3.6 0 19
r 4.010032 1 4 tcp 40 ---A--- 0 1.0 3.0 0 10
+ 4.010032 4 5 tcp 40 ---A--- 0 1.0 3.0 0 10
d 4.010032 4 5 tcp 40 ---A--- 0 1.0 3.0 0 10
r 4.010032 0 4 tcp 40 ---A--- 1 0.0 3.1 0 11
+ 4.010032 4 5 tcp 40 ---A--- 1 0.0 3.1 0 11
d 4.010032 4 5 tcp 40 ---A--- 1 0.0 3.1 0 11
r 4.010064 1 4 tcp 40 ---A--- 2 1.1 3.2 0 12
+ 4.010064 4 5 tcp 40 ---A--- 2 1.1 3.2 0 12
d 4.010064 4 5 tcp 40 ---A--- 2 1.1 3.2 0 12
r 4.010064 0 4 tcp 40 ---A--- 6 0.1 2.0 0 16
+ 4.010064 4 5 tcp 40 ---A--- 6 0.1 2.0 0 16
d 4.010064 4 5 tcp 40 ---A--- 6 0.1 2.0 0 16
r 4.010096 1 4 tcp 40 ---A--- 3 1.2 3.3 0 13
+ 4.010096 4 5 tcp 40 ---A--- 3 1.2 3.3 0 13
d 4.010096 4 5 tcp 40 ---A--- 3 1.2 3.3 0 13
r 4.010096 0 4 tcp 40 ---A--- 7 0.2 2.1 0 17
+ 4.010096 4 5 tcp 40 ---A--- 7 0.2 2.1 0 17
d 4.010096 4 5 tcp 40 ---A--- 7 0.2 2.1 0 17
r 4.010128 1 4 tcp 40 ---A--- 4 1.3 3.4 0 14
+ 4.010128 4 5 tcp 40 ---A--- 4 1.3 3.4 0 14
d 4.010128 4 5 tcp 40 ---A--- 4 1.3 3.4 0 14
r 4.010128 0 4 tcp 40 ---A--- 8 0.3 2.2 0 18
+ 4.010128 4 5 tcp 40 ---A--- 8 0.3 2.2 0 18
d 4.010128 4 5 tcp 40 ---A--- 8 0.3 2.2 0 18
r 4.01016 1 4 tcp 40 ---A--- 5 1.4 3.5 0 15
+ 4.01016 4 5 tcp 40 ---A--- 5 1.4 3.5 0 15
d 4.01016 4 5 tcp 40 ---A--- 5 1.4 3.5 0 15
r 4.010192 1 4 tcp 40 ---A--- 9 1.5 3.6 0 19
+ 4.010192 4 5 tcp 40 ---A--- 9 1.5 3.6 0 19
d 4.010192 4 5 tcp 40 ---A--- 9 1.5 3.6 0 19
+ 10 1 4 tcp 40 ---A--- 0 1.0 3.0 0 20
- 10 1 4 tcp 40 ---A--- 0 1.0 3.0 0 20
+ 10 0 4 tcp 40 ---A--- 1 0.0 3.1 0 21
- 10 0 4 tcp 40 ---A--- 1 0.0 3.1 0 21
+ 10 1 4 tcp 40 ---A--- 2 1.1 3.2 0 22
+ 10 1 4 tcp 40 ---A--- 3 1.2 3.3 0 23
+ 10 1 4 tcp 40 ---A--- 4 1.3 3.4 0 24
+ 10 1 4 tcp 40 ---A--- 5 1.4 3.5 0 25
+ 10 0 4 tcp 40 ---A--- 6 0.1 2.0 0 26
+ 10 0 4 tcp 40 ---A--- 7 0.2 2.1 0 27
+ 10 0 4 tcp 40 ---A--- 8 0.3 2.2 0 28
+ 10 1 4 tcp 40 ---A--- 9 1.5 3.6 0 29
- 10.000032 1 4 tcp 40 ---A--- 2 1.1 3.2 0 22
- 10.000032 0 4 tcp 40 ---A--- 6 0.1 2.0 0 26
- 10.000064 1 4 tcp 40 ---A--- 3 1.2 3.3 0 23
- 10.000064 0 4 tcp 40 ---A--- 7 0.2 2.1 0 27
- 10.000096 1 4 tcp 40 ---A--- 4 1.3 3.4 0 24
- 10.000096 0 4 tcp 40 ---A--- 8 0.3 2.2 0 28
- 10.000128 1 4 tcp 40 ---A--- 5 1.4 3.5 0 25
- 10.00016 1 4 tcp 40 ---A--- 9 1.5 3.6 0 29
r 10.010032 1 4 tcp 40 ---A--- 0 1.0 3.0 0 20
+ 10.010032 4 5 tcp 40 ---A--- 0 1.0 3.0 0 20
d 10.010032 4 5 tcp 40 ---A--- 0 1.0 3.0 0 20
r 10.010032 0 4 tcp 40 ---A--- 1 0.0 3.1 0 21
+ 10.010032 4 5 tcp 40 ---A--- 1 0.0 3.1 0 21
d 10.010032 4 5 tcp 40 ---A--- 1 0.0 3.1 0 21
r 10.010064 1 4 tcp 40 ---A--- 2 1.1 3.2 0 22
+ 10.010064 4 5 tcp 40 ---A--- 2 1.1 3.2 0 22
d 10.010064 4 5 tcp 40 ---A--- 2 1.1 3.2 0 22
r 10.010064 0 4 tcp 40 ---A--- 6 0.1 2.0 0 26
+ 10.010064 4 5 tcp 40 ---A--- 6 0.1 2.0 0 26
d 10.010064 4 5 tcp 40 ---A--- 6 0.1 2.0 0 26
r 10.010096 1 4 tcp 40 ---A--- 3 1.2 3.3 0 23
+ 10.010096 4 5 tcp 40 ---A--- 3 1.2 3.3 0 23
d 10.010096 4 5 tcp 40 ---A--- 3 1.2 3.3 0 23
r 10.010096 0 4 tcp 40 ---A--- 7 0.2 2.1 0 27
+ 10.010096 4 5 tcp 40 ---A--- 7 0.2 2.1 0 27
d 10.010096 4 5 tcp 40 ---A--- 7 0.2 2.1 0 27
r 10.010128 1 4 tcp 40 ---A--- 4 1.3 3.4 0 24
+ 10.010128 4 5 tcp 40 ---A--- 4 1.3 3.4 0 24
d 10.010128 4 5 tcp 40 ---A--- 4 1.3 3.4 0 24
r 10.010128 0 4 tcp 40 ---A--- 8 0.3 2.2 0 28
+ 10.010128 4 5 tcp 40 ---A--- 8 0.3 2.2 0 28
d 10.010128 4 5 tcp 40 ---A--- 8 0.3 2.2 0 28
r 10.01016 1 4 tcp 40 ---A--- 5 1.4 3.5 0 25
+ 10.01016 4 5 tcp 40 ---A--- 5 1.4 3.5 0 25
d 10.01016 4 5 tcp 40 ---A--- 5 1.4 3.5 0 25
r 10.010192 1 4 tcp 40 ---A--- 9 1.5 3.6 0 29
+ 10.010192 4 5 tcp 40 ---A--- 9 1.5 3.6 0 29
d 10.010192 4 5 tcp 40 ---A--- 9 1.5 3.6 0 29
+ 22 1 4 tcp 40 ---A--- 0 1.0 3.0 0 30
- 22 1 4 tcp 40 ---A--- 0 1.0 3.0 0 30
+ 22 0 4 tcp 40 ---A--- 1 0.0 3.1 0 31
- 22 0 4 tcp 40 ---A--- 1 0.0 3.1 0 31
+ 22 1 4 tcp 40 ---A--- 2 1.1 3.2 0 32
+ 22 1 4 tcp 40 ---A--- 3 1.2 3.3 0 33
+ 22 1 4 tcp 40 ---A--- 4 1.3 3.4 0 34
+ 22 1 4 tcp 40 ---A--- 5 1.4 3.5 0 35
+ 22 0 4 tcp 40 ---A--- 6 0.1 2.0 0 36
+ 22 0 4 tcp 40 ---A--- 7 0.2 2.1 0 37
+ 22 0 4 tcp 40 ---A--- 8 0.3 2.2 0 38
+ 22 1 4 tcp 40 ---A--- 9 1.5 3.6 0 39
- 22.000032 1 4 tcp 40 ---A--- 2 1.1 3.2 0 32
- 22.000032 0 4 tcp 40 ---A--- 6 0.1 2.0 0 36
- 22.000064 1 4 tcp 40 ---A--- 3 1.2 3.3 0 33
- 22.000064 0 4 tcp 40 ---A--- 7 0.2 2.1 0 37
- 22.000096 1 4 tcp 40 ---A--- 4 1.3 3.4 0 34
- 22.000096 0 4 tcp 40 ---A--- 8 0.3 2.2 0 38
- 22.000128 1 4 tcp 40 ---A--- 5 1.4 3.5 0 35
- 22.00016 1 4 tcp 40 ---A--- 9 1.5 3.6 0 39
r 22.010032 1 4 tcp 40 ---A--- 0 1.0 3.0 0 30
+ 22.010032 4 5 tcp 40 ---A--- 0 1.0 3.0 0 30
d 22.010032 4 5 tcp 40 ---A--- 0 1.0 3.0 0 30
r 22.010032 0 4 tcp 40 ---A--- 1 0.0 3.1 0 31
+ 22.010032 4 5 tcp 40 ---A--- 1 0.0 3.1 0 31
d 22.010032 4 5 tcp 40 ---A--- 1 0.0 3.1 0 31
r 22.010064 1 4 tcp 40 ---A--- 2 1.1 3.2 0 32
+ 22.010064 4 5 tcp 40 ---A--- 2 1.1 3.2 0 32
d 22.010064 4 5 tcp 40 ---A--- 2 1.1 3.2 0 32
r 22.010064 0 4 tcp 40 ---A--- 6 0.1 2.0 0 36
+ 22.010064 4 5 tcp 40 ---A--- 6 0.1 2.0 0 36
d 22.010064 4 5 tcp 40 ---A--- 6 0.1 2.0 0 36
r 22.010096 1 4 tcp 40 ---A--- 3 1.2 3.3 0 33
+ 22.010096 4 5 tcp 40 ---A--- 3 1.2 3.3 0 33
d 22.010096 4 5 tcp 40 ---A--- 3 1.2 3.3 0 33
r 22.010096 0 4 tcp 40 ---A--- 7 0.2 2.1 0 37
+ 22.010096 4 5 tcp 40 ---A--- 7 0.2 2.1 0 37
d 22.010096 4 5 tcp 40 ---A--- 7 0.2 2.1 0 37
r 22.010128 1 4 tcp 40 ---A--- 4 1.3 3.4 0 34
+ 22.010128 4 5 tcp 40 ---A--- 4 1.3 3.4 0 34
d 22.010128 4 5 tcp 40 ---A--- 4 1.3 3.4 0 34
r 22.010128 0 4 tcp 40 ---A--- 8 0.3 2.2 0 38
+ 22.010128 4 5 tcp 40 ---A--- 8 0.3 2.2 0 38
d 22.010128 4 5 tcp 40 ---A--- 8 0.3 2.2 0 38
r 22.01016 1 4 tcp 40 ---A--- 5 1.4 3.5 0 35
+ 22.01016 4 5 tcp 40 ---A--- 5 1.4 3.5 0 35
d 22.01016 4 5 tcp 40 ---A--- 5 1.4 3.5 0 35
r 22.010192 1 4 tcp 40 ---A--- 9 1.5 3.6 0 39
+ 22.010192 4 5 tcp 40 ---A--- 9 1.5 3.6 0 39
d 22.010192 4 5 tcp 40 ---A--- 9 1.5 3.6 0 39
+ 46 1 4 tcp 40 ---A--- 0 1.0 3.0 0 40
- 46 1 4 tcp 40 ---A--- 0 1.0 3.0 0 40
+ 46 0 4 tcp 40 ---A--- 1 0.0 3.1 0 41
- 46 0 4 tcp 40 ---A--- 1 0.0 3.1 0 41
+ 46 1 4 tcp 40 ---A--- 2 1.1 3.2 0 42
+ 46 1 4 tcp 40 ---A--- 3 1.2 3.3 0 43
+ 46 1 4 tcp 40 ---A--- 4 1.3 3.4 0 44
+ 46 1 4 tcp 40 ---A--- 5 1.4 3.5 0 45
+ 46 0 4 tcp 40 ---A--- 6 0.1 2.0 0 46
+ 46 0 4 tcp 40 ---A--- 7 0.2 2.1 0 47
+ 46 0 4 tcp 40 ---A--- 8 0.3 2.2 0 48
+ 46 1 4 tcp 40 ---A--- 9 1.5 3.6 0 49
- 46.000032 1 4 tcp 40 ---A--- 2 1.1 3.2 0 42
- 46.000032 0 4 tcp 40 ---A--- 6 0.1 2.0 0 46
- 46.000064 1 4 tcp 40 ---A--- 3 1.2 3.3 0 43
- 46.000064 0 4 tcp 40 ---A--- 7 0.2 2.1 0 47
- 46.000096 1 4 tcp 40 ---A--- 4 1.3 3.4 0 44
- 46.000096 0 4 tcp 40 ---A--- 8 0.3 2.2 0 48
- 46.000128 1 4 tcp 40 ---A--- 5 1.4 3.5 0 45
- 46.00016 1 4 tcp 40 ---A--- 9 1.5 3.6 0 49
r 46.010032 1 4 tcp 40 ---A--- 0 1.0 3.0 0 40
+ 46.010032 4 5 tcp 40 ---A--- 0 1.0 3.0 0 40
d 46.010032 4 5 tcp 40 ---A--- 0 1.0 3.0 0 40
r 46.010032 0 4 tcp 40 ---A--- 1 0.0 3.1 0 41
+ 46.010032 4 5 tcp 40 ---A--- 1 0.0 3.1 0 41
d 46.010032 4 5 tcp 40 ---A--- 1 0.0 3.1 0 41
r 46.010064 1 4 tcp 40 ---A--- 2 1.1 3.2 0 42
+ 46.010064 4 5 tcp 40 ---A--- 2 1.1 3.2 0 42
d 46.010064 4 5 tcp 40 ---A--- 2 1.1 3.2 0 42
r 46.010064 0 4 tcp 40 ---A--- 6 0.1 2.0 0 46
+ 46.010064 4 5 tcp 40 ---A--- 6 0.1 2.0 0 46
d 46.010064 4 5 tcp 40 ---A--- 6 0.1 2.0 0 46
r 46.010096 1 4 tcp 40 ---A--- 3 1.2 3.3 0 43
+ 46.010096 4 5 tcp 40 ---A--- 3 1.2 3.3 0 43
d 46.010096 4 5 tcp 40 ---A--- 3 1.2 3.3 0 43
r 46.010096 0 4 tcp 40 ---A--- 7 0.2 2.1 0 47
+ 46.010096 4 5 tcp 40 ---A--- 7 0.2 2.1 0 47
d 46.010096 4 5 tcp 40 ---A--- 7 0.2 2.1 0 47
r 46.010128 1 4 tcp 40 ---A--- 4 1.3 3.4 0 44
+ 46.010128 4 5 tcp 40 ---A--- 4 1.3 3.4 0 44
d 46.010128 4 5 tcp 40 ---A--- 4 1.3 3.4 0 44
r 46.010128 0 4 tcp 40 ---A--- 8 0.3 2.2 0 48
+ 46.010128 4 5 tcp 40 ---A--- 8 0.3 2.2 0 48
d 46.010128 4 5 tcp 40 ---A--- 8 0.3 2.2 0 48
r 46.01016 1 4 tcp 40 ---A--- 5 1.4 3.5 0 45
+ 46.01016 4 5 tcp 40 ---A--- 5 1.4 3.5 0 45
d 46.01016 4 5 tcp 40 ---A--- 5 1.4 3.5 0 45
r 46.010192 1 4 tcp 40 ---A--- 9 1.5 3.6 0 49
+ 46.010192 4 5 tcp 40 ---A--- 9 1.5 3.6 0 49
d 46.010192 4 5 tcp 40 ---A--- 9 1.5 3.6 0 49
