n -t * -s 0  -x 0 -y 0 -Z 0 -z 20  -v circle -c black
n -t * -s 1  -x 0 -y 83 -Z 0 -z 20  -v circle -c black
n -t * -s 2  -x 0 -y 166 -Z 0 -z 20  -v circle -c black
n -t * -s 3  -x 0 -y 250 -Z 0 -z 20  -v circle -c black
n -t * -s 4  -x 0 -y 333 -Z 0 -z 20  -v circle -c black
n -t * -s 5  -x 0 -y 416 -Z 0 -z 20  -v circle -c black
n -t * -s 6  -x 0 -y 500 -Z 0 -z 20  -v circle -c black
n -t * -s 7  -x 0 -y 583 -Z 0 -z 20  -v circle -c black
n -t * -s 8  -x 83 -y 0 -Z 0 -z 20  -v circle -c black
n -t * -s 9  -x 83 -y 83 -Z 0 -z 20  -v circle -c black
n -t * -s 10  -x 83 -y 166 -Z 0 -z 20  -v circle -c black
n -t * -s 11  -x 83 -y 250 -Z 0 -z 20  -v circle -c black
n -t * -s 12  -x 83 -y 333 -Z 0 -z 20  -v circle -c black
n -t * -s 13  -x 83 -y 416 -Z 0 -z 20  -v circle -c black
n -t * -s 14  -x 83 -y 500 -Z 0 -z 20  -v circle -c black
n -t * -s 15  -x 83 -y 583 -Z 0 -z 20  -v circle -c black
n -t * -s 16  -x 166 -y 0 -Z 0 -z 20  -v circle -c black
n -t * -s 17  -x 166 -y 83 -Z 0 -z 20  -v circle -c black
n -t * -s 18  -x 166 -y 166 -Z 0 -z 20  -v circle -c black
n -t * -s 19  -x 166 -y 250 -Z 0 -z 20  -v circle -c black
n -t * -s 20  -x 166 -y 333 -Z 0 -z 20  -v circle -c black
n -t * -s 21  -x 166 -y 416 -Z 0 -z 20  -v circle -c black
n -t * -s 22  -x 166 -y 500 -Z 0 -z 20  -v circle -c black
n -t * -s 23  -x 166 -y 583 -Z 0 -z 20  -v circle -c black
n -t * -s 24  -x 250 -y 0 -Z 0 -z 20  -v circle -c black
n -t * -s 25  -x 250 -y 83 -Z 0 -z 20  -v circle -c black
n -t * -s 26  -x 250 -y 166 -Z 0 -z 20  -v circle -c black
n -t * -s 27  -x 250 -y 250 -Z 0 -z 20  -v circle -c black
n -t * -s 28  -x 250 -y 333 -Z 0 -z 20  -v circle -c black
n -t * -s 29  -x 250 -y 416 -Z 0 -z 20  -v circle -c black
V -t * -v 1.0a5 -a 0
W -t * -x 500 -y 500
A -t * -n 1 -p 0 -o 0x7fffffff -c 30 -a 1
A -t * -h 1 -m 1073741823 -s 0
+ -t 0.031084838 -s 14 -d -1 -p message -e 32 -c 2 -a 0 -i 0 -k RTR 
- -t 0.031084838 -s 14 -d -1 -p message -e 32 -c 2 -a 0 -i 0 -k RTR
h -t 0.031084838 -s 14 -d -1 -p message -e 32 -c 2 -a 0 -i 0 -k RTR
r -t 0.031925115 -s 6 -d -1 -p message -e 32 -c 2 -a 0 -i 0 -k RTR
r -t 0.031925115 -s 15 -d -1 -p message -e 32 -c 2 -a 0 -i 0 -k RTR
r -t 0.031925115 -s 22 -d -1 -p message -e 32 -c 2 -a 0 -i 0 -k RTR
r -t 0.031925118 -s 13 -d -1 -p message -e 32 -c 2 -a 0 -i 0 -k RTR
r -t 0.031925230 -s 7 -d -1 -p message -e 32 -c 2 -a 0 -i 0 -k RTR
r -t 0.031925230 -s 23 -d -1 -p message -e 32 -c 2 -a 0 -i 0 -k RTR
r -t 0.031925232 -s 5 -d -1 -p message -e 32 -c 2 -a 0 -i 0 -k RTR
r -t 0.031925232 -s 21 -d -1 -p message -e 32 -c 2 -a 0 -i 0 -k RTR
r -t 0.031925395 -s 12 -d -1 -p message -e 32 -c 2 -a 0 -i 0 -k RTR
r -t 0.031925460 -s 4 -d -1 -p message -e 32 -c 2 -a 0 -i 0 -k RTR
r -t 0.031925460 -s 20 -d -1 -p message -e 32 -c 2 -a 0 -i 0 -k RTR
r -t 0.031925461 -s 29 -d -1 -p message -e 32 -c 2 -a 0 -i 0 -k RTR
r -t 0.031925626 -s 28 -d -1 -p message -e 32 -c 2 -a 0 -i 0 -k RTR
r -t 0.031925672 -s 11 -d -1 -p message -e 32 -c 2 -a 0 -i 0 -k RTR
+ -t 0.056902223 -s 26 -d -1 -p message -e 32 -c 2 -a 0 -i 1 -k RTR 
- -t 0.056902223 -s 26 -d -1 -p message -e 32 -c 2 -a 0 -i 1 -k RTR
h -t 0.056902223 -s 26 -d -1 -p message -e 32 -c 2 -a 0 -i 1 -k RTR
r -t 0.058022500 -s 25 -d -1 -p message -e 32 -c 2 -a 0 -i 1 -k RTR
r -t 0.058022503 -s 18 -d -1 -p message -e 32 -c 2 -a 0 -i 1 -k RTR
r -t 0.058022503 -s 27 -d -1 -p message -e 32 -c 2 -a 0 -i 1 -k RTR
r -t 0.058022617 -s 17 -d -1 -p message -e 32 -c 2 -a 0 -i 1 -k RTR
r -t 0.058022619 -s 19 -d -1 -p message -e 32 -c 2 -a 0 -i 1 -k RTR
r -t 0.058022777 -s 24 -d -1 -p message -e 32 -c 2 -a 0 -i 1 -k RTR
r -t 0.058022780 -s 10 -d -1 -p message -e 32 -c 2 -a 0 -i 1 -k RTR
r -t 0.058022780 -s 28 -d -1 -p message -e 32 -c 2 -a 0 -i 1 -k RTR
r -t 0.058022843 -s 16 -d -1 -p message -e 32 -c 2 -a 0 -i 1 -k RTR
r -t 0.058022845 -s 9 -d -1 -p message -e 32 -c 2 -a 0 -i 1 -k RTR
r -t 0.058022846 -s 20 -d -1 -p message -e 32 -c 2 -a 0 -i 1 -k RTR
r -t 0.058022846 -s 11 -d -1 -p message -e 32 -c 2 -a 0 -i 1 -k RTR
r -t 0.058023008 -s 8 -d -1 -p message -e 32 -c 2 -a 0 -i 1 -k RTR
r -t 0.058023011 -s 12 -d -1 -p message -e 32 -c 2 -a 0 -i 1 -k RTR
r -t 0.058023057 -s 2 -d -1 -p message -e 32 -c 2 -a 0 -i 1 -k RTR
r -t 0.058023057 -s 29 -d -1 -p message -e 32 -c 2 -a 0 -i 1 -k RTR
+ -t 0.117306589 -s 13 -d -1 -p message -e 32 -c 2 -a 0 -i 2 -k RTR 
- -t 0.117306589 -s 13 -d -1 -p message -e 32 -c 2 -a 0 -i 2 -k RTR
h -t 0.117306589 -s 13 -d -1 -p message -e 32 -c 2 -a 0 -i 2 -k RTR
r -t 0.118326866 -s 12 -d -1 -p message -e 32 -c 2 -a 0 -i 2 -k RTR
r -t 0.118326866 -s 5 -d -1 -p message -e 32 -c 2 -a 0 -i 2 -k RTR
r -t 0.118326866 -s 21 -d -1 -p message -e 32 -c 2 -a 0 -i 2 -k RTR
r -t 0.118326869 -s 14 -d -1 -p message -e 32 -c 2 -a 0 -i 2 -k RTR
r -t 0.118326980 -s 4 -d -1 -p message -e 32 -c 2 -a 0 -i 2 -k RTR
r -t 0.118326980 -s 20 -d -1 -p message -e 32 -c 2 -a 0 -i 2 -k RTR
r -t 0.118326983 -s 6 -d -1 -p message -e 32 -c 2 -a 0 -i 2 -k RTR
r -t 0.118326983 -s 22 -d -1 -p message -e 32 -c 2 -a 0 -i 2 -k RTR
r -t 0.118327142 -s 11 -d -1 -p message -e 32 -c 2 -a 0 -i 2 -k RTR
r -t 0.118327146 -s 15 -d -1 -p message -e 32 -c 2 -a 0 -i 2 -k RTR
r -t 0.118327146 -s 29 -d -1 -p message -e 32 -c 2 -a 0 -i 2 -k RTR
r -t 0.118327208 -s 3 -d -1 -p message -e 32 -c 2 -a 0 -i 2 -k RTR
r -t 0.118327208 -s 19 -d -1 -p message -e 32 -c 2 -a 0 -i 2 -k RTR
r -t 0.118327211 -s 7 -d -1 -p message -e 32 -c 2 -a 0 -i 2 -k RTR
r -t 0.118327211 -s 23 -d -1 -p message -e 32 -c 2 -a 0 -i 2 -k RTR
r -t 0.118327211 -s 28 -d -1 -p message -e 32 -c 2 -a 0 -i 2 -k RTR
r -t 0.118327374 -s 27 -d -1 -p message -e 32 -c 2 -a 0 -i 2 -k RTR
r -t 0.118327422 -s 10 -d -1 -p message -e 32 -c 2 -a 0 -i 2 -k RTR
+ -t 0.222609144 -s 6 -d -1 -p message -e 32 -c 2 -a 0 -i 3 -k RTR 
- -t 0.222609144 -s 6 -d -1 -p message -e 32 -c 2 -a 0 -i 3 -k RTR
h -t 0.222609144 -s 6 -d -1 -p message -e 32 -c 2 -a 0 -i 3 -k RTR
r -t 0.223629421 -s 7 -d -1 -p message -e 32 -c 2 -a 0 -i 3 -k RTR
r -t 0.223629421 -s 14 -d -1 -p message -e 32 -c 2 -a 0 -i 3 -k RTR
r -t 0.223629424 -s 5 -d -1 -p message -e 32 -c 2 -a 0 -i 3 -k RTR
r -t 0.223629536 -s 15 -d -1 -p message -e 32 -c 2 -a 0 -i 3 -k RTR
r -t 0.223629538 -s 13 -d -1 -p message -e 32 -c 2 -a 0 -i 3 -k RTR
r -t 0.223629698 -s 22 -d -1 -p message -e 32 -c 2 -a 0 -i 3 -k RTR
r -t 0.223629701 -s 4 -d -1 -p message -e 32 -c 2 -a 0 -i 3 -k RTR
r -t 0.223629763 -s 23 -d -1 -p message -e 32 -c 2 -a 0 -i 3 -k RTR
r -t 0.223629765 -s 21 -d -1 -p message -e 32 -c 2 -a 0 -i 3 -k RTR
r -t 0.223629766 -s 12 -d -1 -p message -e 32 -c 2 -a 0 -i 3 -k RTR
r -t 0.223629929 -s 20 -d -1 -p message -e 32 -c 2 -a 0 -i 3 -k RTR
r -t 0.223629978 -s 3 -d -1 -p message -e 32 -c 2 -a 0 -i 3 -k RTR
+ -t 0.231343049 -s 12 -d -1 -p message -e 32 -c 2 -a 0 -i 4 -k RTR 
- -t 0.231343049 -s 12 -d -1 -p message -e 32 -c 2 -a 0 -i 4 -k RTR
h -t 0.231343049 -s 12 -d -1 -p message -e 32 -c 2 -a 0 -i 4 -k RTR
r -t 0.232283326 -s 11 -d -1 -p message -e 32 -c 2 -a 0 -i 4 -k RTR
r -t 0.232283326 -s 4 -d -1 -p message -e 32 -c 2 -a 0 -i 4 -k RTR
r -t 0.232283326 -s 13 -d -1 -p message -e 32 -c 2 -a 0 -i 4 -k RTR
r -t 0.232283326 -s 20 -d -1 -p message -e 32 -c 2 -a 0 -i 4 -k RTR
r -t 0.232283440 -s 5 -d -1 -p message -e 32 -c 2 -a 0 -i 4 -k RTR
r -t 0.232283440 -s 3 -d -1 -p message -e 32 -c 2 -a 0 -i 4 -k RTR
r -t 0.232283440 -s 19 -d -1 -p message -e 32 -c 2 -a 0 -i 4 -k RTR
r -t 0.232283440 -s 21 -d -1 -p message -e 32 -c 2 -a 0 -i 4 -k RTR
r -t 0.232283606 -s 10 -d -1 -p message -e 32 -c 2 -a 0 -i 4 -k RTR
r -t 0.232283606 -s 14 -d -1 -p message -e 32 -c 2 -a 0 -i 4 -k RTR
r -t 0.232283606 -s 28 -d -1 -p message -e 32 -c 2 -a 0 -i 4 -k RTR
r -t 0.232283671 -s 6 -d -1 -p message -e 32 -c 2 -a 0 -i 4 -k RTR
r -t 0.232283671 -s 2 -d -1 -p message -e 32 -c 2 -a 0 -i 4 -k RTR
r -t 0.232283671 -s 18 -d -1 -p message -e 32 -c 2 -a 0 -i 4 -k RTR
r -t 0.232283671 -s 22 -d -1 -p message -e 32 -c 2 -a 0 -i 4 -k RTR
r -t 0.232283671 -s 27 -d -1 -p message -e 32 -c 2 -a 0 -i 4 -k RTR
r -t 0.232283671 -s 29 -d -1 -p message -e 32 -c 2 -a 0 -i 4 -k RTR
r -t 0.232283836 -s 26 -d -1 -p message -e 32 -c 2 -a 0 -i 4 -k RTR
r -t 0.232283883 -s 9 -d -1 -p message -e 32 -c 2 -a 0 -i 4 -k RTR
r -t 0.232283883 -s 15 -d -1 -p message -e 32 -c 2 -a 0 -i 4 -k RTR
+ -t 0.254227110 -s 17 -d -1 -p message -e 32 -c 2 -a 0 -i 5 -k RTR 
- -t 0.254227110 -s 17 -d -1 -p message -e 32 -c 2 -a 0 -i 5 -k RTR
h -t 0.254227110 -s 17 -d -1 -p message -e 32 -c 2 -a 0 -i 5 -k RTR
r -t 0.255647387 -s 16 -d -1 -p message -e 32 -c 2 -a 0 -i 5 -k RTR
r -t 0.255647387 -s 9 -d -1 -p message -e 32 -c 2 -a 0 -i 5 -k RTR
r -t 0.255647387 -s 18 -d -1 -p message -e 32 -c 2 -a 0 -i 5 -k RTR
r -t 0.255647390 -s 25 -d -1 -p message -e 32 -c 2 -a 0 -i 5 -k RTR
r -t 0.255647502 -s 10 -d -1 -p message -e 32 -c 2 -a 0 -i 5 -k RTR
r -t 0.255647502 -s 8 -d -1 -p message -e 32 -c 2 -a 0 -i 5 -k RTR
r -t 0.255647504 -s 24 -d -1 -p message -e 32 -c 2 -a 0 -i 5 -k RTR
r -t 0.255647504 -s 26 -d -1 -p message -e 32 -c 2 -a 0 -i 5 -k RTR
r -t 0.255647664 -s 1 -d -1 -p message -e 32 -c 2 -a 0 -i 5 -k RTR
r -t 0.255647667 -s 19 -d -1 -p message -e 32 -c 2 -a 0 -i 5 -k RTR
r -t 0.255647729 -s 2 -d -1 -p message -e 32 -c 2 -a 0 -i 5 -k RTR
r -t 0.255647729 -s 0 -d -1 -p message -e 32 -c 2 -a 0 -i 5 -k RTR
r -t 0.255647732 -s 11 -d -1 -p message -e 32 -c 2 -a 0 -i 5 -k RTR
r -t 0.255647733 -s 27 -d -1 -p message -e 32 -c 2 -a 0 -i 5 -k RTR
r -t 0.255647895 -s 3 -d -1 -p message -e 32 -c 2 -a 0 -i 5 -k RTR
r -t 0.255647944 -s 20 -d -1 -p message -e 32 -c 2 -a 0 -i 5 -k RTR
+ -t 0.376230368 -s 8 -d -1 -p message -e 32 -c 2 -a 0 -i 7 -k RTR 
- -t 0.376230368 -s 8 -d -1 -p message -e 32 -c 2 -a 0 -i 7 -k RTR
h -t 0.376230368 -s 8 -d -1 -p message -e 32 -c 2 -a 0 -i 7 -k RTR
r -t 0.377390645 -s 0 -d -1 -p message -e 32 -c 2 -a 0 -i 7 -k RTR
r -t 0.377390645 -s 9 -d -1 -p message -e 32 -c 2 -a 0 -i 7 -k RTR
r -t 0.377390645 -s 16 -d -1 -p message -e 32 -c 2 -a 0 -i 7 -k RTR
r -t 0.377390759 -s 1 -d -1 -p message -e 32 -c 2 -a 0 -i 7 -k RTR
r -t 0.377390759 -s 17 -d -1 -p message -e 32 -c 2 -a 0 -i 7 -k RTR
r -t 0.377390921 -s 10 -d -1 -p message -e 32 -c 2 -a 0 -i 7 -k RTR
r -t 0.377390925 -s 24 -d -1 -p message -e 32 -c 2 -a 0 -i 7 -k RTR
r -t 0.377390987 -s 2 -d -1 -p message -e 32 -c 2 -a 0 -i 7 -k RTR
r -t 0.377390987 -s 18 -d -1 -p message -e 32 -c 2 -a 0 -i 7 -k RTR
r -t 0.377390990 -s 25 -d -1 -p message -e 32 -c 2 -a 0 -i 7 -k RTR
r -t 0.377391153 -s 26 -d -1 -p message -e 32 -c 2 -a 0 -i 7 -k RTR
r -t 0.377391201 -s 11 -d -1 -p message -e 32 -c 2 -a 0 -i 7 -k RTR
+ -t 0.380266257 -s 28 -d -1 -p message -e 32 -c 2 -a 0 -i 6 -k RTR 
- -t 0.380266257 -s 28 -d -1 -p message -e 32 -c 2 -a 0 -i 6 -k RTR
h -t 0.380266257 -s 28 -d -1 -p message -e 32 -c 2 -a 0 -i 6 -k RTR
r -t 0.381666534 -s 27 -d -1 -p message -e 32 -c 2 -a 0 -i 6 -k RTR
r -t 0.381666534 -s 29 -d -1 -p message -e 32 -c 2 -a 0 -i 6 -k RTR
r -t 0.381666537 -s 20 -d -1 -p message -e 32 -c 2 -a 0 -i 6 -k RTR
r -t 0.381666651 -s 21 -d -1 -p message -e 32 -c 2 -a 0 -i 6 -k RTR
r -t 0.381666651 -s 19 -d -1 -p message -e 32 -c 2 -a 0 -i 6 -k RTR
r -t 0.381666814 -s 26 -d -1 -p message -e 32 -c 2 -a 0 -i 6 -k RTR
r -t 0.381666814 -s 12 -d -1 -p message -e 32 -c 2 -a 0 -i 6 -k RTR
r -t 0.381666879 -s 13 -d -1 -p message -e 32 -c 2 -a 0 -i 6 -k RTR
r -t 0.381666879 -s 11 -d -1 -p message -e 32 -c 2 -a 0 -i 6 -k RTR
r -t 0.381666881 -s 22 -d -1 -p message -e 32 -c 2 -a 0 -i 6 -k RTR
r -t 0.381666881 -s 18 -d -1 -p message -e 32 -c 2 -a 0 -i 6 -k RTR
r -t 0.381667045 -s 14 -d -1 -p message -e 32 -c 2 -a 0 -i 6 -k RTR
r -t 0.381667045 -s 10 -d -1 -p message -e 32 -c 2 -a 0 -i 6 -k RTR
r -t 0.381667091 -s 25 -d -1 -p message -e 32 -c 2 -a 0 -i 6 -k RTR
r -t 0.381667091 -s 4 -d -1 -p message -e 32 -c 2 -a 0 -i 6 -k RTR
+ -t 0.485773400 -s 0 -d -1 -p message -e 32 -c 2 -a 0 -i 8 -k RTR 
- -t 0.485773400 -s 0 -d -1 -p message -e 32 -c 2 -a 0 -i 8 -k RTR
h -t 0.485773400 -s 0 -d -1 -p message -e 32 -c 2 -a 0 -i 8 -k RTR
r -t 0.487033677 -s 1 -d -1 -p message -e 32 -c 2 -a 0 -i 8 -k RTR
r -t 0.487033677 -s 8 -d -1 -p message -e 32 -c 2 -a 0 -i 8 -k RTR
r -t 0.487033792 -s 9 -d -1 -p message -e 32 -c 2 -a 0 -i 8 -k RTR
r -t 0.487033954 -s 2 -d -1 -p message -e 32 -c 2 -a 0 -i 8 -k RTR
r -t 0.487033954 -s 16 -d -1 -p message -e 32 -c 2 -a 0 -i 8 -k RTR
r -t 0.487034019 -s 10 -d -1 -p message -e 32 -c 2 -a 0 -i 8 -k RTR
r -t 0.487034019 -s 17 -d -1 -p message -e 32 -c 2 -a 0 -i 8 -k RTR
r -t 0.487034183 -s 18 -d -1 -p message -e 32 -c 2 -a 0 -i 8 -k RTR
r -t 0.487034234 -s 3 -d -1 -p message -e 32 -c 2 -a 0 -i 8 -k RTR
r -t 0.487034234 -s 24 -d -1 -p message -e 32 -c 2 -a 0 -i 8 -k RTR
+ -t 0.517639952 -s 19 -d -1 -p message -e 32 -c 2 -a 0 -i 9 -k RTR 
- -t 0.517639952 -s 19 -d -1 -p message -e 32 -c 2 -a 0 -i 9 -k RTR
h -t 0.517639952 -s 19 -d -1 -p message -e 32 -c 2 -a 0 -i 9 -k RTR
r -t 0.518680228 -s 11 -d -1 -p message -e 32 -c 2 -a 0 -i 9 -k RTR
r -t 0.518680228 -s 20 -d -1 -p message -e 32 -c 2 -a 0 -i 9 -k RTR
r -t 0.518680232 -s 18 -d -1 -p message -e 32 -c 2 -a 0 -i 9 -k RTR
r -t 0.518680232 -s 27 -d -1 -p message -e 32 -c 2 -a 0 -i 9 -k RTR
r -t 0.518680343 -s 12 -d -1 -p message -e 32 -c 2 -a 0 -i 9 -k RTR
r -t 0.518680345 -s 10 -d -1 -p message -e 32 -c 2 -a 0 -i 9 -k RTR
r -t 0.518680345 -s 28 -d -1 -p message -e 32 -c 2 -a 0 -i 9 -k RTR
r -t 0.518680348 -s 26 -d -1 -p message -e 32 -c 2 -a 0 -i 9 -k RTR
r -t 0.518680505 -s 3 -d -1 -p message -e 32 -c 2 -a 0 -i 9 -k RTR
r -t 0.518680505 -s 21 -d -1 -p message -e 32 -c 2 -a 0 -i 9 -k RTR
r -t 0.518680508 -s 17 -d -1 -p message -e 32 -c 2 -a 0 -i 9 -k RTR
r -t 0.518680570 -s 13 -d -1 -p message -e 32 -c 2 -a 0 -i 9 -k RTR
r -t 0.518680570 -s 4 -d -1 -p message -e 32 -c 2 -a 0 -i 9 -k RTR
r -t 0.518680572 -s 2 -d -1 -p message -e 32 -c 2 -a 0 -i 9 -k RTR
r -t 0.518680572 -s 29 -d -1 -p message -e 32 -c 2 -a 0 -i 9 -k RTR
r -t 0.518680573 -s 9 -d -1 -p message -e 32 -c 2 -a 0 -i 9 -k RTR
r -t 0.518680575 -s 25 -d -1 -p message -e 32 -c 2 -a 0 -i 9 -k RTR
r -t 0.518680734 -s 5 -d -1 -p message -e 32 -c 2 -a 0 -i 9 -k RTR
r -t 0.518680737 -s 1 -d -1 -p message -e 32 -c 2 -a 0 -i 9 -k RTR
r -t 0.518680785 -s 16 -d -1 -p message -e 32 -c 2 -a 0 -i 9 -k RTR
r -t 0.518680785 -s 22 -d -1 -p message -e 32 -c 2 -a 0 -i 9 -k RTR
+ -t 0.532460869 -s 23 -d -1 -p message -e 32 -c 2 -a 0 -i 10 -k RTR 
- -t 0.532460869 -s 23 -d -1 -p message -e 32 -c 2 -a 0 -i 10 -k RTR
h -t 0.532460869 -s 23 -d -1 -p message -e 32 -c 2 -a 0 -i 10 -k RTR
r -t 0.533601146 -s 22 -d -1 -p message -e 32 -c 2 -a 0 -i 10 -k RTR
r -t 0.533601146 -s 15 -d -1 -p message -e 32 -c 2 -a 0 -i 10 -k RTR
r -t 0.533601260 -s 14 -d -1 -p message -e 32 -c 2 -a 0 -i 10 -k RTR
r -t 0.533601422 -s 7 -d -1 -p message -e 32 -c 2 -a 0 -i 10 -k RTR
r -t 0.533601426 -s 21 -d -1 -p message -e 32 -c 2 -a 0 -i 10 -k RTR
r -t 0.533601488 -s 6 -d -1 -p message -e 32 -c 2 -a 0 -i 10 -k RTR
r -t 0.533601491 -s 13 -d -1 -p message -e 32 -c 2 -a 0 -i 10 -k RTR
r -t 0.533601492 -s 29 -d -1 -p message -e 32 -c 2 -a 0 -i 10 -k RTR
r -t 0.533601654 -s 5 -d -1 -p message -e 32 -c 2 -a 0 -i 10 -k RTR
r -t 0.533601702 -s 20 -d -1 -p message -e 32 -c 2 -a 0 -i 10 -k RTR
+ -t 0.654953413 -s 27 -d -1 -p message -e 32 -c 2 -a 0 -i 11 -k RTR 
- -t 0.654953413 -s 27 -d -1 -p message -e 32 -c 2 -a 0 -i 11 -k RTR
h -t 0.654953413 -s 27 -d -1 -p message -e 32 -c 2 -a 0 -i 11 -k RTR
r -t 0.655933689 -s 28 -d -1 -p message -e 32 -c 2 -a 0 -i 11 -k RTR
r -t 0.655933693 -s 26 -d -1 -p message -e 32 -c 2 -a 0 -i 11 -k RTR
r -t 0.655933693 -s 19 -d -1 -p message -e 32 -c 2 -a 0 -i 11 -k RTR
r -t 0.655933806 -s 20 -d -1 -p message -e 32 -c 2 -a 0 -i 11 -k RTR
r -t 0.655933809 -s 18 -d -1 -p message -e 32 -c 2 -a 0 -i 11 -k RTR
r -t 0.655933966 -s 29 -d -1 -p message -e 32 -c 2 -a 0 -i 11 -k RTR
r -t 0.655933969 -s 25 -d -1 -p message -e 32 -c 2 -a 0 -i 11 -k RTR
r -t 0.655933969 -s 11 -d -1 -p message -e 32 -c 2 -a 0 -i 11 -k RTR
r -t 0.655934033 -s 21 -d -1 -p message -e 32 -c 2 -a 0 -i 11 -k RTR
r -t 0.655934034 -s 12 -d -1 -p message -e 32 -c 2 -a 0 -i 11 -k RTR
r -t 0.655934036 -s 17 -d -1 -p message -e 32 -c 2 -a 0 -i 11 -k RTR
r -t 0.655934036 -s 10 -d -1 -p message -e 32 -c 2 -a 0 -i 11 -k RTR
r -t 0.655934198 -s 13 -d -1 -p message -e 32 -c 2 -a 0 -i 11 -k RTR
r -t 0.655934200 -s 9 -d -1 -p message -e 32 -c 2 -a 0 -i 11 -k RTR
r -t 0.655934246 -s 24 -d -1 -p message -e 32 -c 2 -a 0 -i 11 -k RTR
r -t 0.655934246 -s 3 -d -1 -p message -e 32 -c 2 -a 0 -i 11 -k RTR
+ -t 0.676532986 -s 16 -d -1 -p message -e 32 -c 2 -a 0 -i 12 -k RTR 
- -t 0.676532986 -s 16 -d -1 -p message -e 32 -c 2 -a 0 -i 12 -k RTR
h -t 0.676532986 -s 16 -d -1 -p message -e 32 -c 2 -a 0 -i 12 -k RTR
r -t 0.677353262 -s 8 -d -1 -p message -e 32 -c 2 -a 0 -i 12 -k RTR
r -t 0.677353262 -s 17 -d -1 -p message -e 32 -c 2 -a 0 -i 12 -k RTR
r -t 0.677353266 -s 24 -d -1 -p message -e 32 -c 2 -a 0 -i 12 -k RTR
r -t 0.677353377 -s 9 -d -1 -p message -e 32 -c 2 -a 0 -i 12 -k RTR
r -t 0.677353379 -s 25 -d -1 -p message -e 32 -c 2 -a 0 -i 12 -k RTR
r -t 0.677353539 -s 0 -d -1 -p message -e 32 -c 2 -a 0 -i 12 -k RTR
r -t 0.677353539 -s 18 -d -1 -p message -e 32 -c 2 -a 0 -i 12 -k RTR
r -t 0.677353604 -s 10 -d -1 -p message -e 32 -c 2 -a 0 -i 12 -k RTR
r -t 0.677353604 -s 1 -d -1 -p message -e 32 -c 2 -a 0 -i 12 -k RTR
r -t 0.677353606 -s 26 -d -1 -p message -e 32 -c 2 -a 0 -i 12 -k RTR
r -t 0.677353768 -s 2 -d -1 -p message -e 32 -c 2 -a 0 -i 12 -k RTR
r -t 0.677353819 -s 19 -d -1 -p message -e 32 -c 2 -a 0 -i 12 -k RTR
+ -t 0.812814200 -s 7 -d -1 -p message -e 32 -c 2 -a 0 -i 13 -k RTR 
- -t 0.812814200 -s 7 -d -1 -p message -e 32 -c 2 -a 0 -i 13 -k RTR
h -t 0.812814200 -s 7 -d -1 -p message -e 32 -c 2 -a 0 -i 13 -k RTR
r -t 0.813654477 -s 6 -d -1 -p message -e 32 -c 2 -a 0 -i 13 -k RTR
r -t 0.813654477 -s 15 -d -1 -p message -e 32 -c 2 -a 0 -i 13 -k RTR
r -t 0.813654592 -s 14 -d -1 -p message -e 32 -c 2 -a 0 -i 13 -k RTR
r -t 0.813654754 -s 23 -d -1 -p message -e 32 -c 2 -a 0 -i 13 -k RTR
r -t 0.813654757 -s 5 -d -1 -p message -e 32 -c 2 -a 0 -i 13 -k RTR
r -t 0.813654819 -s 22 -d -1 -p message -e 32 -c 2 -a 0 -i 13 -k RTR
r -t 0.813654822 -s 13 -d -1 -p message -e 32 -c 2 -a 0 -i 13 -k RTR
r -t 0.813654985 -s 21 -d -1 -p message -e 32 -c 2 -a 0 -i 13 -k RTR
r -t 0.813655034 -s 4 -d -1 -p message -e 32 -c 2 -a 0 -i 13 -k RTR
+ -t 0.814350275 -s 5 -d -1 -p message -e 32 -c 2 -a 0 -i 14 -k RTR 
- -t 0.814350275 -s 5 -d -1 -p message -e 32 -c 2 -a 0 -i 14 -k RTR
h -t 0.814350275 -s 5 -d -1 -p message -e 32 -c 2 -a 0 -i 14 -k RTR
r -t 0.815430551 -s 4 -d -1 -p message -e 32 -c 2 -a 0 -i 14 -k RTR
r -t 0.815430551 -s 13 -d -1 -p message -e 32 -c 2 -a 0 -i 14 -k RTR
r -t 0.815430555 -s 6 -d -1 -p message -e 32 -c 2 -a 0 -i 14 -k RTR
r -t 0.815430666 -s 12 -d -1 -p message -e 32 -c 2 -a 0 -i 14 -k RTR
r -t 0.815430668 -s 14 -d -1 -p message -e 32 -c 2 -a 0 -i 14 -k RTR
r -t 0.815430828 -s 3 -d -1 -p message -e 32 -c 2 -a 0 -i 14 -k RTR
r -t 0.815430828 -s 21 -d -1 -p message -e 32 -c 2 -a 0 -i 14 -k RTR
r -t 0.815430831 -s 7 -d -1 -p message -e 32 -c 2 -a 0 -i 14 -k RTR
r -t 0.815430893 -s 11 -d -1 -p message -e 32 -c 2 -a 0 -i 14 -k RTR
r -t 0.815430893 -s 20 -d -1 -p message -e 32 -c 2 -a 0 -i 14 -k RTR
r -t 0.815430895 -s 22 -d -1 -p message -e 32 -c 2 -a 0 -i 14 -k RTR
r -t 0.815430896 -s 15 -d -1 -p message -e 32 -c 2 -a 0 -i 14 -k RTR
r -t 0.815431057 -s 19 -d -1 -p message -e 32 -c 2 -a 0 -i 14 -k RTR
r -t 0.815431059 -s 23 -d -1 -p message -e 32 -c 2 -a 0 -i 14 -k RTR
r -t 0.815431108 -s 2 -d -1 -p message -e 32 -c 2 -a 0 -i 14 -k RTR
r -t 0.815431108 -s 29 -d -1 -p message -e 32 -c 2 -a 0 -i 14 -k RTR
+ -t 0.855449347 -s 25 -d -1 -p message -e 32 -c 2 -a 0 -i 15 -k RTR 
- -t 0.855449347 -s 25 -d -1 -p message -e 32 -c 2 -a 0 -i 15 -k RTR
h -t 0.855449347 -s 25 -d -1 -p message -e 32 -c 2 -a 0 -i 15 -k RTR
r -t 0.856709624 -s 24 -d -1 -p message -e 32 -c 2 -a 0 -i 15 -k RTR
r -t 0.856709624 -s 26 -d -1 -p message -e 32 -c 2 -a 0 -i 15 -k RTR
r -t 0.856709627 -s 17 -d -1 -p message -e 32 -c 2 -a 0 -i 15 -k RTR
r -t 0.856709741 -s 18 -d -1 -p message -e 32 -c 2 -a 0 -i 15 -k RTR
r -t 0.856709741 -s 16 -d -1 -p message -e 32 -c 2 -a 0 -i 15 -k RTR
r -t 0.856709904 -s 9 -d -1 -p message -e 32 -c 2 -a 0 -i 15 -k RTR
r -t 0.856709904 -s 27 -d -1 -p message -e 32 -c 2 -a 0 -i 15 -k RTR
r -t 0.856709969 -s 10 -d -1 -p message -e 32 -c 2 -a 0 -i 15 -k RTR
r -t 0.856709969 -s 8 -d -1 -p message -e 32 -c 2 -a 0 -i 15 -k RTR
r -t 0.856709971 -s 19 -d -1 -p message -e 32 -c 2 -a 0 -i 15 -k RTR
r -t 0.856710135 -s 11 -d -1 -p message -e 32 -c 2 -a 0 -i 15 -k RTR
r -t 0.856710181 -s 1 -d -1 -p message -e 32 -c 2 -a 0 -i 15 -k RTR
r -t 0.856710181 -s 28 -d -1 -p message -e 32 -c 2 -a 0 -i 15 -k RTR
+ -t 1.000000000 -s 22 -d -1 -p tcp -e 40 -c 2 -a 0 -i 16 -k AGT 
- -t 1.000000000 -s 22 -d -1 -p tcp -e 40 -c 2 -a 0 -i 16 -k AGT
h -t 1.000000000 -s 22 -d -1 -p tcp -e 40 -c 2 -a 0 -i 16 -k AGT
+ -t 1.000000000 -s 1 -d -1 -p tcp -e 40 -c 2 -a 0 -i 17 -k AGT 
- -t 1.000000000 -s 1 -d -1 -p tcp -e 40 -c 2 -a 0 -i 17 -k AGT
h -t 1.000000000 -s 1 -d -1 -p tcp -e 40 -c 2 -a 0 -i 17 -k AGT
+ -t 1.000000000 -s 1 -d 19 -p tcp -e 60 -c 2 -a 0 -i 17 -k RTR 
- -t 1.000000000 -s 1 -d 19 -p tcp -e 60 -c 2 -a 0 -i 17 -k RTR
h -t 1.000000000 -s 1 -d 19 -p tcp -e 60 -c 2 -a 0 -i 17 -k RTR
+ -t 1.000000000 -s 26 -d -1 -p tcp -e 40 -c 2 -a 0 -i 18 -k AGT 
- -t 1.000000000 -s 26 -d -1 -p tcp -e 40 -c 2 -a 0 -i 18 -k AGT
h -t 1.000000000 -s 26 -d -1 -p tcp -e 40 -c 2 -a 0 -i 18 -k AGT
+ -t 1.000000000 -s 26 -d 17 -p tcp -e 60 -c 2 -a 0 -i 18 -k RTR 
- -t 1.000000000 -s 26 -d 17 -p tcp -e 60 -c 2 -a 0 -i 18 -k RTR
h -t 1.000000000 -s 26 -d 17 -p tcp -e 60 -c 2 -a 0 -i 18 -k RTR
+ -t 1.000000000 -s 27 -d -1 -p tcp -e 40 -c 2 -a 0 -i 19 -k AGT 
- -t 1.000000000 -s 27 -d -1 -p tcp -e 40 -c 2 -a 0 -i 19 -k AGT
h -t 1.000000000 -s 27 -d -1 -p tcp -e 40 -c 2 -a 0 -i 19 -k AGT
+ -t 1.000000000 -s 18 -d -1 -p tcp -e 40 -c 2 -a 0 -i 20 -k AGT 
- -t 1.000000000 -s 18 -d -1 -p tcp -e 40 -c 2 -a 0 -i 20 -k AGT
h -t 1.000000000 -s 18 -d -1 -p tcp -e 40 -c 2 -a 0 -i 20 -k AGT
+ -t 1.000000000 -s 27 -d -1 -p tcp -e 40 -c 2 -a 0 -i 21 -k AGT 
- -t 1.000000000 -s 27 -d -1 -p tcp -e 40 -c 2 -a 0 -i 21 -k AGT
h -t 1.000000000 -s 27 -d -1 -p tcp -e 40 -c 2 -a 0 -i 21 -k AGT
+ -t 1.000000000 -s 17 -d -1 -p tcp -e 40 -c 2 -a 0 -i 22 -k AGT 
- -t 1.000000000 -s 17 -d -1 -p tcp -e 40 -c 2 -a 0 -i 22 -k AGT
h -t 1.000000000 -s 17 -d -1 -p tcp -e 40 -c 2 -a 0 -i 22 -k AGT
+ -t 1.000000000 -s 5 -d -1 -p tcp -e 40 -c 2 -a 0 -i 23 -k AGT 
- -t 1.000000000 -s 5 -d -1 -p tcp -e 40 -c 2 -a 0 -i 23 -k AGT
h -t 1.000000000 -s 5 -d -1 -p tcp -e 40 -c 2 -a 0 -i 23 -k AGT
+ -t 1.000000000 -s 5 -d 14 -p tcp -e 60 -c 2 -a 0 -i 23 -k RTR 
- -t 1.000000000 -s 5 -d 14 -p tcp -e 60 -c 2 -a 0 -i 23 -k RTR
h -t 1.000000000 -s 5 -d 14 -p tcp -e 60 -c 2 -a 0 -i 23 -k RTR
+ -t 1.000000000 -s 17 -d -1 -p tcp -e 40 -c 2 -a 0 -i 24 -k AGT 
- -t 1.000000000 -s 17 -d -1 -p tcp -e 40 -c 2 -a 0 -i 24 -k AGT
h -t 1.000000000 -s 17 -d -1 -p tcp -e 40 -c 2 -a 0 -i 24 -k AGT
+ -t 1.000000000 -s 10 -d -1 -p tcp -e 40 -c 2 -a 0 -i 25 -k AGT 
- -t 1.000000000 -s 10 -d -1 -p tcp -e 40 -c 2 -a 0 -i 25 -k AGT
h -t 1.000000000 -s 10 -d -1 -p tcp -e 40 -c 2 -a 0 -i 25 -k AGT
+ -t 1.000000000 -s 10 -d 27 -p tcp -e 60 -c 2 -a 0 -i 25 -k RTR 
- -t 1.000000000 -s 10 -d 27 -p tcp -e 60 -c 2 -a 0 -i 25 -k RTR
h -t 1.000000000 -s 10 -d 27 -p tcp -e 60 -c 2 -a 0 -i 25 -k RTR
+ -t 1.000000000 -s 3 -d -1 -p tcp -e 40 -c 2 -a 0 -i 26 -k AGT 
- -t 1.000000000 -s 3 -d -1 -p tcp -e 40 -c 2 -a 0 -i 26 -k AGT
h -t 1.000000000 -s 3 -d -1 -p tcp -e 40 -c 2 -a 0 -i 26 -k AGT
+ -t 1.000000000 -s 3 -d 13 -p tcp -e 60 -c 2 -a 0 -i 26 -k RTR 
- -t 1.000000000 -s 3 -d 13 -p tcp -e 60 -c 2 -a 0 -i 26 -k RTR
h -t 1.000000000 -s 3 -d 13 -p tcp -e 60 -c 2 -a 0 -i 26 -k RTR
+ -t 1.000000000 -s 5 -d -1 -p tcp -e 40 -c 2 -a 0 -i 27 -k AGT 
- -t 1.000000000 -s 5 -d -1 -p tcp -e 40 -c 2 -a 0 -i 27 -k AGT
h -t 1.000000000 -s 5 -d -1 -p tcp -e 40 -c 2 -a 0 -i 27 -k AGT
+ -t 1.000000000 -s 5 -d 23 -p tcp -e 60 -c 2 -a 0 -i 27 -k RTR 
- -t 1.000000000 -s 5 -d 23 -p tcp -e 60 -c 2 -a 0 -i 27 -k RTR
h -t 1.000000000 -s 5 -d 23 -p tcp -e 60 -c 2 -a 0 -i 27 -k RTR
+ -t 1.000000000 -s 4 -d -1 -p tcp -e 40 -c 2 -a 0 -i 28 -k AGT 
- -t 1.000000000 -s 4 -d -1 -p tcp -e 40 -c 2 -a 0 -i 28 -k AGT
h -t 1.000000000 -s 4 -d -1 -p tcp -e 40 -c 2 -a 0 -i 28 -k AGT
+ -t 1.000000000 -s 28 -d -1 -p tcp -e 40 -c 2 -a 0 -i 29 -k AGT 
- -t 1.000000000 -s 28 -d -1 -p tcp -e 40 -c 2 -a 0 -i 29 -k AGT
h -t 1.000000000 -s 28 -d -1 -p tcp -e 40 -c 2 -a 0 -i 29 -k AGT
+ -t 1.000000000 -s 18 -d -1 -p tcp -e 40 -c 2 -a 0 -i 30 -k AGT 
- -t 1.000000000 -s 18 -d -1 -p tcp -e 40 -c 2 -a 0 -i 30 -k AGT
h -t 1.000000000 -s 18 -d -1 -p tcp -e 40 -c 2 -a 0 -i 30 -k AGT
+ -t 1.000000000 -s 14 -d -1 -p tcp -e 40 -c 2 -a 0 -i 31 -k AGT 
- -t 1.000000000 -s 14 -d -1 -p tcp -e 40 -c 2 -a 0 -i 31 -k AGT
h -t 1.000000000 -s 14 -d -1 -p tcp -e 40 -c 2 -a 0 -i 31 -k AGT
+ -t 1.000000000 -s 22 -d -1 -p tcp -e 40 -c 2 -a 0 -i 32 -k AGT 
- -t 1.000000000 -s 22 -d -1 -p tcp -e 40 -c 2 -a 0 -i 32 -k AGT
h -t 1.000000000 -s 22 -d -1 -p tcp -e 40 -c 2 -a 0 -i 32 -k AGT
+ -t 1.000000000 -s 2 -d -1 -p tcp -e 40 -c 2 -a 0 -i 33 -k AGT 
- -t 1.000000000 -s 2 -d -1 -p tcp -e 40 -c 2 -a 0 -i 33 -k AGT
h -t 1.000000000 -s 2 -d -1 -p tcp -e 40 -c 2 -a 0 -i 33 -k AGT
+ -t 1.000000000 -s 2 -d 5 -p tcp -e 60 -c 2 -a 0 -i 33 -k RTR 
- -t 1.000000000 -s 2 -d 5 -p tcp -e 60 -c 2 -a 0 -i 33 -k RTR
h -t 1.000000000 -s 2 -d 5 -p tcp -e 60 -c 2 -a 0 -i 33 -k RTR
+ -t 1.000000000 -s 1 -d -1 -p tcp -e 40 -c 2 -a 0 -i 34 -k AGT 
- -t 1.000000000 -s 1 -d -1 -p tcp -e 40 -c 2 -a 0 -i 34 -k AGT
h -t 1.000000000 -s 1 -d -1 -p tcp -e 40 -c 2 -a 0 -i 34 -k AGT
+ -t 1.000000000 -s 5 -d -1 -p tcp -e 40 -c 2 -a 0 -i 35 -k AGT 
- -t 1.000000000 -s 5 -d -1 -p tcp -e 40 -c 2 -a 0 -i 35 -k AGT
h -t 1.000000000 -s 5 -d -1 -p tcp -e 40 -c 2 -a 0 -i 35 -k AGT
+ -t 1.000000000 -s 28 -d -1 -p tcp -e 40 -c 2 -a 0 -i 36 -k AGT 
- -t 1.000000000 -s 28 -d -1 -p tcp -e 40 -c 2 -a 0 -i 36 -k AGT
h -t 1.000000000 -s 28 -d -1 -p tcp -e 40 -c 2 -a 0 -i 36 -k AGT
+ -t 1.000000000 -s 23 -d -1 -p tcp -e 40 -c 2 -a 0 -i 37 -k AGT 
- -t 1.000000000 -s 23 -d -1 -p tcp -e 40 -c 2 -a 0 -i 37 -k AGT
h -t 1.000000000 -s 23 -d -1 -p tcp -e 40 -c 2 -a 0 -i 37 -k AGT
+ -t 1.000000000 -s 14 -d -1 -p tcp -e 40 -c 2 -a 0 -i 38 -k AGT 
- -t 1.000000000 -s 14 -d -1 -p tcp -e 40 -c 2 -a 0 -i 38 -k AGT
h -t 1.000000000 -s 14 -d -1 -p tcp -e 40 -c 2 -a 0 -i 38 -k AGT
+ -t 1.000000000 -s 27 -d -1 -p tcp -e 40 -c 2 -a 0 -i 39 -k AGT 
- -t 1.000000000 -s 27 -d -1 -p tcp -e 40 -c 2 -a 0 -i 39 -k AGT
h -t 1.000000000 -s 27 -d -1 -p tcp -e 40 -c 2 -a 0 -i 39 -k AGT
+ -t 1.000000000 -s 7 -d -1 -p tcp -e 40 -c 2 -a 0 -i 40 -k AGT 
- -t 1.000000000 -s 7 -d -1 -p tcp -e 40 -c 2 -a 0 -i 40 -k AGT
h -t 1.000000000 -s 7 -d -1 -p tcp -e 40 -c 2 -a 0 -i 40 -k AGT
+ -t 1.000000000 -s 22 -d -1 -p tcp -e 40 -c 2 -a 0 -i 41 -k AGT 
- -t 1.000000000 -s 22 -d -1 -p tcp -e 40 -c 2 -a 0 -i 41 -k AGT
h -t 1.000000000 -s 22 -d -1 -p tcp -e 40 -c 2 -a 0 -i 41 -k AGT
+ -t 1.000000000 -s 10 -d -1 -p tcp -e 40 -c 2 -a 0 -i 42 -k AGT 
- -t 1.000000000 -s 10 -d -1 -p tcp -e 40 -c 2 -a 0 -i 42 -k AGT
h -t 1.000000000 -s 10 -d -1 -p tcp -e 40 -c 2 -a 0 -i 42 -k AGT
+ -t 1.000000000 -s 10 -d 26 -p tcp -e 60 -c 2 -a 0 -i 42 -k RTR 
- -t 1.000000000 -s 10 -d 26 -p tcp -e 60 -c 2 -a 0 -i 42 -k RTR
h -t 1.000000000 -s 10 -d 26 -p tcp -e 60 -c 2 -a 0 -i 42 -k RTR
+ -t 1.000000000 -s 1 -d -1 -p tcp -e 40 -c 2 -a 0 -i 43 -k AGT 
- -t 1.000000000 -s 1 -d -1 -p tcp -e 40 -c 2 -a 0 -i 43 -k AGT
h -t 1.000000000 -s 1 -d -1 -p tcp -e 40 -c 2 -a 0 -i 43 -k AGT
+ -t 1.000000000 -s 8 -d -1 -p tcp -e 40 -c 2 -a 0 -i 44 -k AGT 
- -t 1.000000000 -s 8 -d -1 -p tcp -e 40 -c 2 -a 0 -i 44 -k AGT
h -t 1.000000000 -s 8 -d -1 -p tcp -e 40 -c 2 -a 0 -i 44 -k AGT
+ -t 1.000000000 -s 8 -d -1 -p tcp -e 40 -c 2 -a 0 -i 45 -k AGT 
- -t 1.000000000 -s 8 -d -1 -p tcp -e 40 -c 2 -a 0 -i 45 -k AGT
h -t 1.000000000 -s 8 -d -1 -p tcp -e 40 -c 2 -a 0 -i 45 -k AGT
r -t 1.007141012 -s 5 -d 5 -p tcp -e 60 -c 2 -a 0 -i 33 -k AGT
+ -t 1.007141012 -s 5 -d -1 -p ack -e 40 -c 2 -a 0 -i 46 -k AGT 
- -t 1.007141012 -s 5 -d -1 -p ack -e 40 -c 2 -a 0 -i 46 -k AGT
h -t 1.007141012 -s 5 -d -1 -p ack -e 40 -c 2 -a 0 -i 46 -k AGT
r -t 1.015787452 -s 26 -d 26 -p tcp -e 60 -c 2 -a 0 -i 42 -k AGT
+ -t 1.015787452 -s 26 -d -1 -p ack -e 40 -c 2 -a 0 -i 47 -k AGT 
- -t 1.015787452 -s 26 -d -1 -p ack -e 40 -c 2 -a 0 -i 47 -k AGT
h -t 1.015787452 -s 26 -d -1 -p ack -e 40 -c 2 -a 0 -i 47 -k AGT
r -t 1.019753798 -s 19 -d 19 -p tcp -e 60 -c 2 -a 0 -i 17 -k AGT
+ -t 1.019753798 -s 19 -d -1 -p ack -e 40 -c 2 -a 0 -i 48 -k AGT 
- -t 1.019753798 -s 19 -d -1 -p ack -e 40 -c 2 -a 0 -i 48 -k AGT
h -t 1.019753798 -s 19 -d -1 -p ack -e 40 -c 2 -a 0 -i 48 -k AGT
r -t 1.023639754 -s 27 -d 27 -p tcp -e 60 -c 2 -a 0 -i 25 -k AGT
+ -t 1.023639754 -s 27 -d -1 -p ack -e 40 -c 2 -a 0 -i 49 -k AGT 
- -t 1.023639754 -s 27 -d -1 -p ack -e 40 -c 2 -a 0 -i 49 -k AGT
h -t 1.023639754 -s 27 -d -1 -p ack -e 40 -c 2 -a 0 -i 49 -k AGT
r -t 1.025885214 -s 17 -d 17 -p tcp -e 60 -c 2 -a 0 -i 18 -k AGT
+ -t 1.025885214 -s 17 -d -1 -p ack -e 40 -c 2 -a 0 -i 50 -k AGT 
- -t 1.025885214 -s 17 -d -1 -p ack -e 40 -c 2 -a 0 -i 50 -k AGT
h -t 1.025885214 -s 17 -d -1 -p ack -e 40 -c 2 -a 0 -i 50 -k AGT
+ -t 1.025885214 -s 17 -d 26 -p ack -e 60 -c 2 -a 0 -i 50 -k RTR 
- -t 1.025885214 -s 17 -d 26 -p ack -e 60 -c 2 -a 0 -i 50 -k RTR
h -t 1.025885214 -s 17 -d 26 -p ack -e 60 -c 2 -a 0 -i 50 -k RTR
r -t 1.028230395 -s 26 -d 26 -p ack -e 60 -c 2 -a 0 -i 50 -k AGT
+ -t 1.028230395 -s 26 -d -1 -p tcp -e 1040 -c 2 -a 0 -i 51 -k AGT 
- -t 1.028230395 -s 26 -d -1 -p tcp -e 1040 -c 2 -a 0 -i 51 -k AGT
h -t 1.028230395 -s 26 -d -1 -p tcp -e 1040 -c 2 -a 0 -i 51 -k AGT
+ -t 1.028230395 -s 26 -d 17 -p tcp -e 1060 -c 2 -a 0 -i 51 -k RTR 