s 0.031084838 _14_ RTR  --- 0 message 32 [0 0 0 0] ------- [14:255 -1:255 32 0] 
r 0.031925115 _6_ RTR  --- 0 message 32 [0 ffffffff e 800] ------- [14:255 -1:255 32 0] 
r 0.031925115 _15_ RTR  --- 0 message 32 [0 ffffffff e 800] ------- [14:255 -1:255 32 0] 
r 0.031925115 _22_ RTR  --- 0 message 32 [0 ffffffff e 800] ------- [14:255 -1:255 32 0] 
r 0.031925118 _13_ RTR  --- 0 message 32 [0 ffffffff e 800] ------- [14:255 -1:255 32 0] 
r 0.031925230 _7_ RTR  --- 0 message 32 [0 ffffffff e 800] ------- [14:255 -1:255 32 0] 
r 0.031925230 _23_ RTR  --- 0 message 32 [0 ffffffff e 800] ------- [14:255 -1:255 32 0] 
r 0.031925232 _5_ RTR  --- 0 message 32 [0 ffffffff e 800] ------- [14:255 -1:255 32 0] 
r 0.031925232 _21_ RTR  --- 0 message 32 [0 ffffffff e 800] ------- [14:255 -1:255 32 0] 
r 0.031925395 _12_ RTR  --- 0 message 32 [0 ffffffff e 800] ------- [14:255 -1:255 32 0] 
r 0.031925460 _4_ RTR  --- 0 message 32 [0 ffffffff e 800] ------- [14:255 -1:255 32 0] 
r 0.031925460 _20_ RTR  --- 0 message 32 [0 ffffffff e 800] ------- [14:255 -1:255 32 0] 
r 0.031925461 _29_ RTR  --- 0 message 32 [0 ffffffff e 800] ------- [14:255 -1:255 32 0] 
r 0.031925626 _28_ RTR  --- 0 message 32 [0 ffffffff e 800] ------- [14:255 -1:255 32 0] 
r 0.031925672 _11_ RTR  --- 0 message 32 [0 ffffffff e 800] ------- [14:255 -1:255 32 0] 
s 0.056902223 _26_ RTR  --- 1 message 32 [0 0 0 0] ------- [26:255 -1:255 32 0] 
r 0.058022500 _25_ RTR  --- 1 message 32 [0 ffffffff 1a 800] ------- [26:255 -1:255 32 0] 
r 0.058022503 _18_ RTR  --- 1 message 32 [0 ffffffff 1a 800] ------- [26:255 -1:255 32 0] 
r 0.058022503 _27_ RTR  --- 1 message 32 [0 ffffffff 1a 800] ------- [26:255 -1:255 32 0] 
r 0.058022617 _17_ RTR  --- 1 message 32 [0 ffffffff 1a 800] ------- [26:255 -1:255 32 0] 
r 0.058022619 _19_ RTR  --- 1 message 32 [0 ffffffff 1a 800] ------- [26:255 -1:255 32 0] 
r 0.058022777 _24_ RTR  --- 1 message 32 [0 ffffffff 1a 800] ------- [26:255 -1:255 32 0] 
r 0.058022780 _10_ RTR  --- 1 message 32 [0 ffffffff 1a 800] ------- [26:255 -1:255 32 0] 
r 0.058022780 _28_ RTR  --- 1 message 32 [0 ffffffff 1a 800] ------- [26:255 -1:255 32 0] 
r 0.058022843 _16_ RTR  --- 1 message 32 [0 ffffffff 1a 800] ------- [26:255 -1:255 32 0] 
r 0.058022845 _9_ RTR  --- 1 message 32 [0 ffffffff 1a 800] ------- [26:255 -1:255 32 0] 
r 0.058022846 _20_ RTR  --- 1 message 32 [0 ffffffff 1a 800] ------- [26:255 -1:255 32 0] 
r 0.058022846 _11_ RTR  --- 1 message 32 [0 ffffffff 1a 800] ------- [26:255 -1:255 32 0] 
r 0.058023008 _8_ RTR  --- 1 message 32 [0 ffffffff 1a 800] ------- [26:255 -1:255 32 0] 
r 0.058023011 _12_ RTR  --- 1 message 32 [0 ffffffff 1a 800] ------- [26:255 -1:255 32 0] 
r 0.058023057 _2_ RTR  --- 1 message 32 [0 ffffffff 1a 800] ------- [26:255 -1:255 32 0] 
r 0.058023057 _29_ RTR  --- 1 message 32 [0 ffffffff 1a 800] ------- [26:255 -1:255 32 0] 
s 0.117306589 _13_ RTR  --- 2 message 32 [0 0 0 0] ------- [13:255 -1:255 32 0] 
r 0.118326866 _12_ RTR  --- 2 message 32 [0 ffffffff d 800] ------- [13:255 -1:255 32 0] 
r 0.118326866 _5_ RTR  --- 2 message 32 [0 ffffffff d 800] ------- [13:255 -1:255 32 0] 
r 0.118326866 _21_ RTR  --- 2 message 32 [0 ffffffff d 800] ------- [13:255 -1:255 32 0] 
r 0.118326869 _14_ RTR  --- 2 message 32 [0 ffffffff d 800] ------- [13:255 -1:255 32 0] 
r 0.118326980 _4_ RTR  --- 2 message 32 [0 ffffffff d 800] ------- [13:255 -1:255 32 0] 
r 0.118326980 _20_ RTR  --- 2 message 32 [0 ffffffff d 800] ------- [13:255 -1:255 32 0] 
r 0.118326983 _6_ RTR  --- 2 message 32 [0 ffffffff d 800] ------- [13:255 -1:255 32 0] 
r 0.118326983 _22_ RTR  --- 2 message 32 [0 ffffffff d 800] ------- [13:255 -1:255 32 0] 
r 0.118327142 _11_ RTR  --- 2 message 32 [0 ffffffff d 800] ------- [13:255 -1:255 32 0] 
r 0.118327146 _15_ RTR  --- 2 message 32 [0 ffffffff d 800] ------- [13:255 -1:255 32 0] 
r 0.118327146 _29_ RTR  --- 2 message 32 [0 ffffffff d 800] ------- [13:255 -1:255 32 0] 
r 0.118327208 _3_ RTR  --- 2 message 32 [0 ffffffff d 800] ------- [13:255 -1:255 32 0] 
r 0.118327208 _19_ RTR  --- 2 message 32 [0 ffffffff d 800] ------- [13:255 -1:255 32 0] 
r 0.118327211 _7_ RTR  --- 2 message 32 [0 ffffffff d 800] ------- [13:255 -1:255 32 0] 
r 0.118327211 _23_ RTR  --- 2 message 32 [0 ffffffff d 800] ------- [13:255 -1:255 32 0] 
r 0.118327211 _28_ RTR  --- 2 message 32 [0 ffffffff d 800] ------- [13:255 -1:255 32 0] 
r 0.118327374 _27_ RTR  --- 2 message 32 [0 ffffffff d 800] ------- [13:255 -1:255 32 0] 
r 0.118327422 _10_ RTR  --- 2 message 32 [0 ffffffff d 800] ------- [13:255 -1:255 32 0] 
s 0.222609144 _6_ RTR  --- 3 message 32 [0 0 0 0] ------- [6:255 -1:255 32 0] 
r 0.223629421 _7_ RTR  --- 3 message 32 [0 ffffffff 6 800] ------- [6:255 -1:255 32 0] 
r 0.223629421 _14_ RTR  --- 3 message 32 [0 ffffffff 6 800] ------- [6:255 -1:255 32 0] 
r 0.223629424 _5_ RTR  --- 3 message 32 [0 ffffffff 6 800] ------- [6:255 -1:255 32 0] 
r 0.223629536 _15_ RTR  --- 3 message 32 [0 ffffffff 6 800] ------- [6:255 -1:255 32 0] 
r 0.223629538 _13_ RTR  --- 3 message 32 [0 ffffffff 6 800] ------- [6:255 -1:255 32 0] 
r 0.223629698 _22_ RTR  --- 3 message 32 [0 ffffffff 6 800] ------- [6:255 -1:255 32 0] 
r 0.223629701 _4_ RTR  --- 3 message 32 [0 ffffffff 6 800] ------- [6:255 -1:255 32 0] 
r 0.223629763 _23_ RTR  --- 3 message 32 [0 ffffffff 6 800] ------- [6:255 -1:255 32 0] 
r 0.223629765 _21_ RTR  --- 3 message 32 [0 ffffffff 6 800] ------- [6:255 -1:255 32 0] 
r 0.223629766 _12_ RTR  --- 3 message 32 [0 ffffffff 6 800] ------- [6:255 -1:255 32 0] 
r 0.223629929 _20_ RTR  --- 3 message 32 [0 ffffffff 6 800] ------- [6:255 -1:255 32 0] 
r 0.223629978 _3_ RTR  --- 3 message 32 [0 ffffffff 6 800] ------- [6:255 -1:255 32 0] 
s 0.231343049 _12_ RTR  --- 4 message 32 [0 0 0 0] ------- [12:255 -1:255 32 0] 
r 0.232283326 _11_ RTR  --- 4 message 32 [0 ffffffff c 800] ------- [12:255 -1:255 32 0] 
r 0.232283326 _4_ RTR  --- 4 message 32 [0 ffffffff c 800] ------- [12:255 -1:255 32 0] 
r 0.232283326 _13_ RTR  --- 4 message 32 [0 ffffffff c 800] ------- [12:255 -1:255 32 0] 
r 0.232283326 _20_ RTR  --- 4 message 32 [0 ffffffff c 800] ------- [12:255 -1:255 32 0] 
r 0.232283440 _5_ RTR  --- 4 message 32 [0 ffffffff c 800] ------- [12:255 -1:255 32 0] 
r 0.232283440 _3_ RTR  --- 4 message 32 [0 ffffffff c 800] ------- [12:255 -1:255 32 0] 
r 0.232283440 _19_ RTR  --- 4 message 32 [0 ffffffff c 800] ------- [12:255 -1:255 32 0] 
r 0.232283440 _21_ RTR  --- 4 message 32 [0 ffffffff c 800] ------- [12:255 -1:255 32 0] 
r 0.232283606 _10_ RTR  --- 4 message 32 [0 ffffffff c 800] ------- [12:255 -1:255 32 0] 
r 0.232283606 _14_ RTR  --- 4 message 32 [0 ffffffff c 800] ------- [12:255 -1:255 32 0] 
r 0.232283606 _28_ RTR  --- 4 message 32 [0 ffffffff c 800] ------- [12:255 -1:255 32 0] 
r 0.232283671 _6_ RTR  --- 4 message 32 [0 ffffffff c 800] ------- [12:255 -1:255 32 0] 
r 0.232283671 _2_ RTR  --- 4 message 32 [0 ffffffff c 800] ------- [12:255 -1:255 32 0] 
r 0.232283671 _18_ RTR  --- 4 message 32 [0 ffffffff c 800] ------- [12:255 -1:255 32 0] 
r 0.232283671 _22_ RTR  --- 4 message 32 [0 ffffffff c 800] ------- [12:255 -1:255 32 0] 
r 0.232283671 _27_ RTR  --- 4 message 32 [0 ffffffff c 800] ------- [12:255 -1:255 32 0] 
r 0.232283671 _29_ RTR  --- 4 message 32 [0 ffffffff c 800] ------- [12:255 -1:255 32 0] 
r 0.232283836 _26_ RTR  --- 4 message 32 [0 ffffffff c 800] ------- [12:255 -1:255 32 0] 
r 0.232283883 _9_ RTR  --- 4 message 32 [0 ffffffff c 800] ------- [12:255 -1:255 32 0] 
r 0.232283883 _15_ RTR  --- 4 message 32 [0 ffffffff c 800] ------- [12:255 -1:255 32 0] 
s 0.254227110 _17_ RTR  --- 5 message 32 [0 0 0 0] ------- [17:255 -1:255 32 0] 
r 0.255647387 _16_ RTR  --- 5 message 32 [0 ffffffff 11 800] ------- [17:255 -1:255 32 0] 
r 0.255647387 _9_ RTR  --- 5 message 32 [0 ffffffff 11 800] ------- [17:255 -1:255 32 0] 
r 0.255647387 _18_ RTR  --- 5 message 32 [0 ffffffff 11 800] ------- [17:255 -1:255 32 0] 
r 0.255647390 _25_ RTR  --- 5 message 32 [0 ffffffff 11 800] ------- [17:255 -1:255 32 0] 
r 0.255647502 _10_ RTR  --- 5 message 32 [0 ffffffff 11 800] ------- [17:255 -1:255 32 0] 
r 0.255647502 _8_ RTR  --- 5 message 32 [0 ffffffff 11 800] ------- [17:255 -1:255 32 0] 
r 0.255647504 _24_ RTR  --- 5 message 32 [0 ffffffff 11 800] ------- [17:255 -1:255 32 0] 
r 0.255647504 _26_ RTR  --- 5 message 32 [0 ffffffff 11 800] ------- [17:255 -1:255 32 0] 
r 0.255647664 _1_ RTR  --- 5 message 32 [0 ffffffff 11 800] ------- [17:255 -1:255 32 0] 
r 0.255647667 _19_ RTR  --- 5 message 32 [0 ffffffff 11 800] ------- [17:255 -1:255 32 0] 
r 0.255647729 _2_ RTR  --- 5 message 32 [0 ffffffff 11 800] ------- [17:255 -1:255 32 0] 
r 0.255647729 _0_ RTR  --- 5 message 32 [0 ffffffff 11 800] ------- [17:255 -1:255 32 0] 
r 0.255647732 _11_ RTR  --- 5 message 32 [0 ffffffff 11 800] ------- [17:255 -1:255 32 0] 
r 0.255647733 _27_ RTR  --- 5 message 32 [0 ffffffff 11 800] ------- [17:255 -1:255 32 0] 
r 0.255647895 _3_ RTR  --- 5 message 32 [0 ffffffff 11 800] ------- [17:255 -1:255 32 0] 
r 0.255647944 _20_ RTR  --- 5 message 32 [0 ffffffff 11 800] ------- [17:255 -1:255 32 0] 
s 0.376230368 _8_ RTR  --- 7 message 32 [0 0 0 0] ------- [8:255 -1:255 32 0] 
r 0.377390645 _0_ RTR  --- 7 message 32 [0 ffffffff 8 800] ------- [8:255 -1:255 32 0] 
r 0.377390645 _9_ RTR  --- 7 message 32 [0 ffffffff 8 800] ------- [8:255 -1:255 32 0] 
r 0.377390645 _16_ RTR  --- 7 message 32 [0 ffffffff 8 800] ------- [8:255 -1:255 32 0] 
r 0.377390759 _1_ RTR  --- 7 message 32 [0 ffffffff 8 800] ------- [8:255 -1:255 32 0] 
r 0.377390759 _17_ RTR  --- 7 message 32 [0 ffffffff 8 800] ------- [8:255 -1:255 32 0] 
r 0.377390921 _10_ RTR  --- 7 message 32 [0 ffffffff 8 800] ------- [8:255 -1:255 32 0] 
r 0.377390925 _24_ RTR  --- 7 message 32 [0 ffffffff 8 800] ------- [8:255 -1:255 32 0] 
r 0.377390987 _2_ RTR  --- 7 message 32 [0 ffffffff 8 800] ------- [8:255 -1:255 32 0] 
r 0.377390987 _18_ RTR  --- 7 message 32 [0 ffffffff 8 800] ------- [8:255 -1:255 32 0] 
r 0.377390990 _25_ RTR  --- 7 message 32 [0 ffffffff 8 800] ------- [8:255 -1:255 32 0] 
r 0.377391153 _26_ RTR  --- 7 message 32 [0 ffffffff 8 800] ------- [8:255 -1:255 32 0] 
r 0.377391201 _11_ RTR  --- 7 message 32 [0 ffffffff 8 800] ------- [8:255 -1:255 32 0] 
s 0.380266257 _28_ RTR  --- 6 message 32 [0 0 0 0] ------- [28:255 -1:255 32 0] 
r 0.381666534 _27_ RTR  --- 6 message 32 [0 ffffffff 1c 800] ------- [28:255 -1:255 32 0] 
r 0.381666534 _29_ RTR  --- 6 message 32 [0 ffffffff 1c 800] ------- [28:255 -1:255 32 0] 
r 0.381666537 _20_ RTR  --- 6 message 32 [0 ffffffff 1c 800] ------- [28:255 -1:255 32 0] 
r 0.381666651 _21_ RTR  --- 6 message 32 [0 ffffffff 1c 800] ------- [28:255 -1:255 32 0] 
r 0.381666651 _19_ RTR  --- 6 message 32 [0 ffffffff 1c 800] ------- [28:255 -1:255 32 0] 
r 0.381666814 _26_ RTR  --- 6 message 32 [0 ffffffff 1c 800] ------- [28:255 -1:255 32 0] 
r 0.381666814 _12_ RTR  --- 6 message 32 [0 ffffffff 1c 800] ------- [28:255 -1:255 32 0] 
r 0.381666879 _13_ RTR  --- 6 message 32 [0 ffffffff 1c 800] ------- [28:255 -1:255 32 0] 
r 0.381666879 _11_ RTR  --- 6 message 32 [0 ffffffff 1c 800] ------- [28:255 -1:255 32 0] 
r 0.381666881 _22_ RTR  --- 6 message 32 [0 ffffffff 1c 800] ------- [28:255 -1:255 32 0] 
r 0.381666881 _18_ RTR  --- 6 message 32 [0 ffffffff 1c 800] ------- [28:255 -1:255 32 0] 
r 0.381667045 _14_ RTR  --- 6 message 32 [0 ffffffff 1c 800] ------- [28:255 -1:255 32 0] 
r 0.381667045 _10_ RTR  --- 6 message 32 [0 ffffffff 1c 800] ------- [28:255 -1:255 32 0] 
r 0.381667091 _25_ RTR  --- 6 message 32 [0 ffffffff 1c 800] ------- [28:255 -1:255 32 0] 
r 0.381667091 _4_ RTR  --- 6 message 32 [0 ffffffff 1c 800] ------- [28:255 -1:255 32 0] 
s 0.485773400 _0_ RTR  --- 8 message 32 [0 0 0 0] ------- [0:255 -1:255 32 0] 
r 0.487033677 _1_ RTR  --- 8 message 32 [0 ffffffff 0 800] ------- [0:255 -1:255 32 0] 
r 0.487033677 _8_ RTR  --- 8 message 32 [0 ffffffff 0 800] ------- [0:255 -1:255 32 0] 
r 0.487033792 _9_ RTR  --- 8 message 32 [0 ffffffff 0 800] ------- [0:255 -1:255 32 0] 
r 0.487033954 _2_ RTR  --- 8 message 32 [0 ffffffff 0 800] ------- [0:255 -1:255 32 0] 
r 0.487033954 _16_ RTR  --- 8 message 32 [0 ffffffff 0 800] ------- [0:255 -1:255 32 0] 
r 0.487034019 _10_ RTR  --- 8 message 32 [0 ffffffff 0 800] ------- [0:255 -1:255 32 0] 
r 0.487034019 _17_ RTR  --- 8 message 32 [0 ffffffff 0 800] ------- [0:255 -1:255 32 0] 
r 0.487034183 _18_ RTR  --- 8 message 32 [0 ffffffff 0 800] ------- [0:255 -1:255 32 0] 
r 0.487034234 _3_ RTR  --- 8 message 32 [0 ffffffff 0 800] ------- [0:255 -1:255 32 0] 
r 0.487034234 _24_ RTR  --- 8 message 32 [0 ffffffff 0 800] ------- [0:255 -1:255 32 0] 
s 0.517639952 _19_ RTR  --- 9 message 32 [0 0 0 0] ------- [19:255 -1:255 32 0] 
r 0.518680228 _11_ RTR  --- 9 message 32 [0 ffffffff 13 800] ------- [19:255 -1:255 32 0] 
r 0.518680228 _20_ RTR  --- 9 message 32 [0 ffffffff 13 800] ------- [19:255 -1:255 32 0] 
r 0.518680232 _18_ RTR  --- 9 message 32 [0 ffffffff 13 800] ------- [19:255 -1:255 32 0] 
r 0.518680232 _27_ RTR  --- 9 message 32 [0 ffffffff 13 800] ------- [19:255 -1:255 32 0] 
r 0.518680343 _12_ RTR  --- 9 message 32 [0 ffffffff 13 800] ------- [19:255 -1:255 32 0] 
r 0.518680345 _10_ RTR  --- 9 message 32 [0 ffffffff 13 800] ------- [19:255 -1:255 32 0] 
r 0.518680345 _28_ RTR  --- 9 message 32 [0 ffffffff 13 800] ------- [19:255 -1:255 32 0] 
r 0.518680348 _26_ RTR  --- 9 message 32 [0 ffffffff 13 800] ------- [19:255 -1:255 32 0] 
r 0.518680505 _3_ RTR  --- 9 message 32 [0 ffffffff 13 800] ------- [19:255 -1:255 32 0] 
r 0.518680505 _21_ RTR  --- 9 message 32 [0 ffffffff 13 800] ------- [19:255 -1:255 32 0] 
r 0.518680508 _17_ RTR  --- 9 message 32 [0 ffffffff 13 800] ------- [19:255 -1:255 32 0] 
r 0.518680570 _13_ RTR  --- 9 message 32 [0 ffffffff 13 800] ------- [19:255 -1:255 32 0] 
r 0.518680570 _4_ RTR  --- 9 message 32 [0 ffffffff 13 800] ------- [19:255 -1:255 32 0] 
r 0.518680572 _2_ RTR  --- 9 message 32 [0 ffffffff 13 800] ------- [19:255 -1:255 32 0] 
r 0.518680572 _29_ RTR  --- 9 message 32 [0 ffffffff 13 800] ------- [19:255 -1:255 32 0] 
r 0.518680573 _9_ RTR  --- 9 message 32 [0 ffffffff 13 800] ------- [19:255 -1:255 32 0] 
r 0.518680575 _25_ RTR  --- 9 message 32 [0 ffffffff 13 800] ------- [19:255 -1:255 32 0] 
r 0.518680734 _5_ RTR  --- 9 message 32 [0 ffffffff 13 800] ------- [19:255 -1:255 32 0] 
r 0.518680737 _1_ RTR  --- 9 message 32 [0 ffffffff 13 800] ------- [19:255 -1:255 32 0] 
r 0.518680785 _16_ RTR  --- 9 message 32 [0 ffffffff 13 800] ------- [19:255 -1:255 32 0] 
r 0.518680785 _22_ RTR  --- 9 message 32 [0 ffffffff 13 800] ------- [19:255 -1:255 32 0] 
s 0.532460869 _23_ RTR  --- 10 message 32 [0 0 0 0] ------- [23:255 -1:255 32 0] 
r 0.533601146 _22_ RTR  --- 10 message 32 [0 ffffffff 17 800] ------- [23:255 -1:255 32 0] 
r 0.533601146 _15_ RTR  --- 10 message 32 [0 ffffffff 17 800] ------- [23:255 -1:255 32 0] 
r 0.533601260 _14_ RTR  --- 10 message 32 [0 ffffffff 17 800] ------- [23:255 -1:255 32 0] 
r 0.533601422 _7_ RTR  --- 10 message 32 [0 ffffffff 17 800] ------- [23:255 -1:255 32 0] 
r 0.533601426 _21_ RTR  --- 10 message 32 [0 ffffffff 17 800] ------- [23:255 -1:255 32 0] 
r 0.533601488 _6_ RTR  --- 10 message 32 [0 ffffffff 17 800] ------- [23:255 -1:255 32 0] 
r 0.533601491 _13_ RTR  --- 10 message 32 [0 ffffffff 17 800] ------- [23:255 -1:255 32 0] 
r 0.533601492 _29_ RTR  --- 10 message 32 [0 ffffffff 17 800] ------- [23:255 -1:255 32 0] 
r 0.533601654 _5_ RTR  --- 10 message 32 [0 ffffffff 17 800] ------- [23:255 -1:255 32 0] 
r 0.533601702 _20_ RTR  --- 10 message 32 [0 ffffffff 17 800] ------- [23:255 -1:255 32 0] 
s 0.654953413 _27_ RTR  --- 11 message 32 [0 0 0 0] ------- [27:255 -1:255 32 0] 
r 0.655933689 _28_ RTR  --- 11 message 32 [0 ffffffff 1b 800] ------- [27:255 -1:255 32 0] 
r 0.655933693 _26_ RTR  --- 11 message 32 [0 ffffffff 1b 800] ------- [27:255 -1:255 32 0] 
r 0.655933693 _19_ RTR  --- 11 message 32 [0 ffffffff 1b 800] ------- [27:255 -1:255 32 0] 
r 0.655933806 _20_ RTR  --- 11 message 32 [0 ffffffff 1b 800] ------- [27:255 -1:255 32 0] 
r 0.655933809 _18_ RTR  --- 11 message 32 [0 ffffffff 1b 800] ------- [27:255 -1:255 32 0] 
r 0.655933966 _29_ RTR  --- 11 message 32 [0 ffffffff 1b 800] ------- [27:255 -1:255 32 0] 
r 0.655933969 _25_ RTR  --- 11 message 32 [0 ffffffff 1b 800] ------- [27:255 -1:255 32 0] 
r 0.655933969 _11_ RTR  --- 11 message 32 [0 ffffffff 1b 800] ------- [27:255 -1:255 32 0] 
r 0.655934033 _21_ RTR  --- 11 message 32 [0 ffffffff 1b 800] ------- [27:255 -1:255 32 0] 
r 0.655934034 _12_ RTR  --- 11 message 32 [0 ffffffff 1b 800] ------- [27:255 -1:255 32 0] 
r 0.655934036 _17_ RTR  --- 11 message 32 [0 ffffffff 1b 800] ------- [27:255 -1:255 32 0] 
r 0.655934036 _10_ RTR  --- 11 message 32 [0 ffffffff 1b 800] ------- [27:255 -1:255 32 0] 
r 0.655934198 _13_ RTR  --- 11 message 32 [0 ffffffff 1b 800] ------- [27:255 -1:255 32 0] 
r 0.655934200 _9_ RTR  --- 11 message 32 [0 ffffffff 1b 800] ------- [27:255 -1:255 32 0] 
r 0.655934246 _24_ RTR  --- 11 message 32 [0 ffffffff 1b 800] ------- [27:255 -1:255 32 0] 
r 0.655934246 _3_ RTR  --- 11 message 32 [0 ffffffff 1b 800] ------- [27:255 -1:255 32 0] 
s 0.676532986 _16_ RTR  --- 12 message 32 [0 0 0 0] ------- [16:255 -1:255 32 0] 
r 0.677353262 _8_ RTR  --- 12 message 32 [0 ffffffff 10 800] ------- [16:255 -1:255 32 0] 
r 0.677353262 _17_ RTR  --- 12 message 32 [0 ffffffff 10 800] ------- [16:255 -1:255 32 0] 
r 0.677353266 _24_ RTR  --- 12 message 32 [0 ffffffff 10 800] ------- [16:255 -1:255 32 0] 
r 0.677353377 _9_ RTR  --- 12 message 32 [0 ffffffff 10 800] ------- [16:255 -1:255 32 0] 
r 0.677353379 _25_ RTR  --- 12 message 32 [0 ffffffff 10 800] ------- [16:255 -1:255 32 0] 
r 0.677353539 _0_ RTR  --- 12 message 32 [0 ffffffff 10 800] ------- [16:255 -1:255 32 0] 
r 0.677353539 _18_ RTR  --- 12 message 32 [0 ffffffff 10 800] ------- [16:255 -1:255 32 0] 
r 0.677353604 _10_ RTR  --- 12 message 32 [0 ffffffff 10 800] ------- [16:255 -1:255 32 0] 
r 0.677353604 _1_ RTR  --- 12 message 32 [0 ffffffff 10 800] ------- [16:255 -1:255 32 0] 
r 0.677353606 _26_ RTR  --- 12 message 32 [0 ffffffff 10 800] ------- [16:255 -1:255 32 0] 
r 0.677353768 _2_ RTR  --- 12 message 32 [0 ffffffff 10 800] ------- [16:255 -1:255 32 0] 
r 0.677353819 _19_ RTR  --- 12 message 32 [0 ffffffff 10 800] ------- [16:255 -1:255 32 0] 
s 0.812814200 _7_ RTR  --- 13 message 32 [0 0 0 0] ------- [7:255 -1:255 32 0] 
r 0.813654477 _6_ RTR  --- 13 message 32 [0 ffffffff 7 800] ------- [7:255 -1:255 32 0] 
r 0.813654477 _15_ RTR  --- 13 message 32 [0 ffffffff 7 800] ------- [7:255 -1:255 32 0] 
r 0.813654592 _14_ RTR  --- 13 message 32 [0 ffffffff 7 800] ------- [7:255 -1:255 32 0] 
r 0.813654754 _23_ RTR  --- 13 message 32 [0 ffffffff 7 800] ------- [7:255 -1:255 32 0] 
r 0.813654757 _5_ RTR  --- 13 message 32 [0 ffffffff 7 800] ------- [7:255 -1:255 32 0] 
r 0.813654819 _22_ RTR  --- 13 message 32 [0 ffffffff 7 800] ------- [7:255 -1:255 32 0] 
r 0.813654822 _13_ RTR  --- 13 message 32 [0 ffffffff 7 800] ------- [7:255 -1:255 32 0] 
r 0.813654985 _21_ RTR  --- 13 message 32 [0 ffffffff 7 800] ------- [7:255 -1:255 32 0] 
r 0.813655034 _4_ RTR  --- 13 message 32 [0 ffffffff 7 800] ------- [7:255 -1:255 32 0] 
s 0.814350275 _5_ RTR  --- 14 message 32 [0 0 0 0] ------- [5:255 -1:255 32 0] 
r 0.815430551 _4_ RTR  --- 14 message 32 [0 ffffffff 5 800] ------- [5:255 -1:255 32 0] 
r 0.815430551 _13_ RTR  --- 14 message 32 [0 ffffffff 5 800] ------- [5:255 -1:255 32 0] 
r 0.815430555 _6_ RTR  --- 14 message 32 [0 ffffffff 5 800] ------- [5:255 -1:255 32 0] 
r 0.815430666 _12_ RTR  --- 14 message 32 [0 ffffffff 5 800] ------- [5:255 -1:255 32 0] 
r 0.815430668 _14_ RTR  --- 14 message 32 [0 ffffffff 5 800] ------- [5:255 -1:255 32 0] 
r 0.815430828 _3_ RTR  --- 14 message 32 [0 ffffffff 5 800] ------- [5:255 -1:255 32 0] 
r 0.815430828 _21_ RTR  --- 14 message 32 [0 ffffffff 5 800] ------- [5:255 -1:255 32 0] 
r 0.815430831 _7_ RTR  --- 14 message 32 [0 ffffffff 5 800] ------- [5:255 -1:255 32 0] 
r 0.815430893 _11_ RTR  --- 14 message 32 [0 ffffffff 5 800] ------- [5:255 -1:255 32 0] 
r 0.815430893 _20_ RTR  --- 14 message 32 [0 ffffffff 5 800] ------- [5:255 -1:255 32 0] 
r 0.815430895 _22_ RTR  --- 14 message 32 [0 ffffffff 5 800] ------- [5:255 -1:255 32 0] 
r 0.815430896 _15_ RTR  --- 14 message 32 [0 ffffffff 5 800] ------- [5:255 -1:255 32 0] 
r 0.815431057 _19_ RTR  --- 14 message 32 [0 ffffffff 5 800] ------- [5:255 -1:255 32 0] 
r 0.815431059 _23_ RTR  --- 14 message 32 [0 ffffffff 5 800] ------- [5:255 -1:255 32 0] 
r 0.815431108 _2_ RTR  --- 14 message 32 [0 ffffffff 5 800] ------- [5:255 -1:255 32 0] 
r 0.815431108 _29_ RTR  --- 14 message 32 [0 ffffffff 5 800] ------- [5:255 -1:255 32 0] 
s 0.855449347 _25_ RTR  --- 15 message 32 [0 0 0 0] ------- [25:255 -1:255 32 0] 
r 0.856709624 _24_ RTR  --- 15 message 32 [0 ffffffff 19 800] ------- [25:255 -1:255 32 0] 
r 0.856709624 _26_ RTR  --- 15 message 32 [0 ffffffff 19 800] ------- [25:255 -1:255 32 0] 
r 0.856709627 _17_ RTR  --- 15 message 32 [0 ffffffff 19 800] ------- [25:255 -1:255 32 0] 
r 0.856709741 _18_ RTR  --- 15 message 32 [0 ffffffff 19 800] ------- [25:255 -1:255 32 0] 
r 0.856709741 _16_ RTR  --- 15 message 32 [0 ffffffff 19 800] ------- [25:255 -1:255 32 0] 
r 0.856709904 _9_ RTR  --- 15 message 32 [0 ffffffff 19 800] ------- [25:255 -1:255 32 0] 
r 0.856709904 _27_ RTR  --- 15 message 32 [0 ffffffff 19 800] ------- [25:255 -1:255 32 0] 
r 0.856709969 _10_ RTR  --- 15 message 32 [0 ffffffff 19 800] ------- [25:255 -1:255 32 0] 
r 0.856709969 _8_ RTR  --- 15 message 32 [0 ffffffff 19 800] ------- [25:255 -1:255 32 0] 
r 0.856709971 _19_ RTR  --- 15 message 32 [0 ffffffff 19 800] ------- [25:255 -1:255 32 0] 
r 0.856710135 _11_ RTR  --- 15 message 32 [0 ffffffff 19 800] ------- [25:255 -1:255 32 0] 
r 0.856710181 _1_ RTR  --- 15 message 32 [0 ffffffff 19 800] ------- [25:255 -1:255 32 0] 
r 0.856710181 _28_ RTR  --- 15 message 32 [0 ffffffff 19 800] ------- [25:255 -1:255 32 0] 
s 1.000000000 _22_ AGT  --- 16 tcp 40 [0 0 0 0] ------- [22:0 4:0 32 0] [0 0] 0 0
r 1.000000000 _22_ RTR  --- 16 tcp 40 [0 0 0 0] ------- [22:0 4:0 32 0] [0 0] 0 0
s 1.000000000 _1_ AGT  --- 17 tcp 40 [0 0 0 0] ------- [1:0 19:0 32 0] [0 0] 0 0
r 1.000000000 _1_ RTR  --- 17 tcp 40 [0 0 0 0] ------- [1:0 19:0 32 0] [0 0] 0 0
s 1.000000000 _1_ RTR  --- 17 tcp 60 [0 0 0 0] ------- [1:0 19:0 32 19] [0 0] 0 0
s 1.000000000 _26_ AGT  --- 18 tcp 40 [0 0 0 0] ------- [26:0 17:0 32 0] [0 0] 0 0
r 1.000000000 _26_ RTR  --- 18 tcp 40 [0 0 0 0] ------- [26:0 17:0 32 0] [0 0] 0 0
s 1.000000000 _26_ RTR  --- 18 tcp 60 [0 0 0 0] ------- [26:0 17:0 32 17] [0 0] 0 0
s 1.000000000 _27_ AGT  --- 19 tcp 40 [0 0 0 0] ------- [27:0 16:0 32 0] [0 0] 0 0
r 1.000000000 _27_ RTR  --- 19 tcp 40 [0 0 0 0] ------- [27:0 16:0 32 0] [0 0] 0 0
s 1.000000000 _18_ AGT  --- 20 tcp 40 [0 0 0 0] ------- [18:0 2:0 32 0] [0 0] 0 0
r 1.000000000 _18_ RTR  --- 20 tcp 40 [0 0 0 0] ------- [18:0 2:0 32 0] [0 0] 0 0
s 1.000000000 _27_ AGT  --- 21 tcp 40 [0 0 0 0] ------- [27:1 5:0 32 0] [0 0] 0 0
r 1.000000000 _27_ RTR  --- 21 tcp 40 [0 0 0 0] ------- [27:1 5:0 32 0] [0 0] 0 0
s 1.000000000 _17_ AGT  --- 22 tcp 40 [0 0 0 0] ------- [17:1 7:0 32 0] [0 0] 0 0
r 1.000000000 _17_ RTR  --- 22 tcp 40 [0 0 0 0] ------- [17:1 7:0 32 0] [0 0] 0 0
s 1.000000000 _5_ AGT  --- 23 tcp 40 [0 0 0 0] ------- [5:1 14:0 32 0] [0 0] 0 0
r 1.000000000 _5_ RTR  --- 23 tcp 40 [0 0 0 0] ------- [5:1 14:0 32 0] [0 0] 0 0
s 1.000000000 _5_ RTR  --- 23 tcp 60 [0 0 0 0] ------- [5:1 14:0 32 14] [0 0] 0 0
s 1.000000000 _17_ AGT  --- 24 tcp 40 [0 0 0 0] ------- [17:2 13:0 32 0] [0 0] 0 0
r 1.000000000 _17_ RTR  --- 24 tcp 40 [0 0 0 0] ------- [17:2 13:0 32 0] [0 0] 0 0
s 1.000000000 _10_ AGT  --- 25 tcp 40 [0 0 0 0] ------- [10:0 27:2 32 0] [0 0] 0 0
r 1.000000000 _10_ RTR  --- 25 tcp 40 [0 0 0 0] ------- [10:0 27:2 32 0] [0 0] 0 0
s 1.000000000 _10_ RTR  --- 25 tcp 60 [0 0 0 0] ------- [10:0 27:2 32 27] [0 0] 0 0
s 1.000000000 _3_ AGT  --- 26 tcp 40 [0 0 0 0] ------- [3:0 13:1 32 0] [0 0] 0 0
r 1.000000000 _3_ RTR  --- 26 tcp 40 [0 0 0 0] ------- [3:0 13:1 32 0] [0 0] 0 0
s 1.000000000 _3_ RTR  --- 26 tcp 60 [0 0 0 0] ------- [3:0 13:1 32 13] [0 0] 0 0
s 1.000000000 _5_ AGT  --- 27 tcp 40 [0 0 0 0] ------- [5:2 23:0 32 0] [0 0] 0 0
r 1.000000000 _5_ RTR  --- 27 tcp 40 [0 0 0 0] ------- [5:2 23:0 32 0] [0 0] 0 0
s 1.000000000 _5_ RTR  --- 27 tcp 60 [0 0 0 0] ------- [5:2 23:0 32 23] [0 0] 0 0
s 1.000000000 _4_ AGT  --- 28 tcp 40 [0 0 0 0] ------- [4:1 20:0 32 0] [0 0] 0 0
r 1.000000000 _4_ RTR  --- 28 tcp 40 [0 0 0 0] ------- [4:1 20:0 32 0] [0 0] 0 0
s 1.000000000 _28_ AGT  --- 29 tcp 40 [0 0 0 0] ------- [28:0 24:0 32 0] [0 0] 0 0
r 1.000000000 _28_ RTR  --- 29 tcp 40 [0 0 0 0] ------- [28:0 24:0 32 0] [0 0] 0 0
s 1.000000000 _18_ AGT  --- 30 tcp 40 [0 0 0 0] ------- [18:1 3:1 32 0] [0 0] 0 0
r 1.000000000 _18_ RTR  --- 30 tcp 40 [0 0 0 0] ------- [18:1 3:1 32 0] [0 0] 0 0
s 1.000000000 _14_ AGT  --- 31 tcp 40 [0 0 0 0] ------- [14:1 2:1 32 0] [0 0] 0 0
r 1.000000000 _14_ RTR  --- 31 tcp 40 [0 0 0 0] ------- [14:1 2:1 32 0] [0 0] 0 0
s 1.000000000 _22_ AGT  --- 32 tcp 40 [0 0 0 0] ------- [22:1 26:1 32 0] [0 0] 0 0
r 1.000000000 _22_ RTR  --- 32 tcp 40 [0 0 0 0] ------- [22:1 26:1 32 0] [0 0] 0 0
s 1.000000000 _2_ AGT  --- 33 tcp 40 [0 0 0 0] ------- [2:2 5:3 32 0] [0 0] 0 0
r 1.000000000 _2_ RTR  --- 33 tcp 40 [0 0 0 0] ------- [2:2 5:3 32 0] [0 0] 0 0
s 1.000000000 _2_ RTR  --- 33 tcp 60 [0 0 0 0] ------- [2:2 5:3 32 5] [0 0] 0 0
s 1.000000000 _1_ AGT  --- 34 tcp 40 [0 0 0 0] ------- [1:1 5:4 32 0] [0 0] 0 0
r 1.000000000 _1_ RTR  --- 34 tcp 40 [0 0 0 0] ------- [1:1 5:4 32 0] [0 0] 0 0
s 1.000000000 _5_ AGT  --- 35 tcp 40 [0 0 0 0] ------- [5:5 28:1 32 0] [0 0] 0 0
r 1.000000000 _5_ RTR  --- 35 tcp 40 [0 0 0 0] ------- [5:5 28:1 32 0] [0 0] 0 0
s 1.000000000 _28_ AGT  --- 36 tcp 40 [0 0 0 0] ------- [28:2 4:2 32 0] [0 0] 0 0
r 1.000000000 _28_ RTR  --- 36 tcp 40 [0 0 0 0] ------- [28:2 4:2 32 0] [0 0] 0 0
s 1.000000000 _23_ AGT  --- 37 tcp 40 [0 0 0 0] ------- [23:1 15:0 32 0] [0 0] 0 0
r 1.000000000 _23_ RTR  --- 37 tcp 40 [0 0 0 0] ------- [23:1 15:0 32 0] [0 0] 0 0
s 1.000000000 _14_ AGT  --- 38 tcp 40 [0 0 0 0] ------- [14:2 9:0 32 0] [0 0] 0 0
r 1.000000000 _14_ RTR  --- 38 tcp 40 [0 0 0 0] ------- [14:2 9:0 32 0] [0 0] 0 0
s 1.000000000 _27_ AGT  --- 39 tcp 40 [0 0 0 0] ------- [27:3 8:0 32 0] [0 0] 0 0
r 1.000000000 _27_ RTR  --- 39 tcp 40 [0 0 0 0] ------- [27:3 8:0 32 0] [0 0] 0 0
s 1.000000000 _7_ AGT  --- 40 tcp 40 [0 0 0 0] ------- [7:1 1:2 32 0] [0 0] 0 0
r 1.000000000 _7_ RTR  --- 40 tcp 40 [0 0 0 0] ------- [7:1 1:2 32 0] [0 0] 0 0
s 1.000000000 _22_ AGT  --- 41 tcp 40 [0 0 0 0] ------- [22:2 29:0 32 0] [0 0] 0 0
r 1.000000000 _22_ RTR  --- 41 tcp 40 [0 0 0 0] ------- [22:2 29:0 32 0] [0 0] 0 0
s 1.000000000 _10_ AGT  --- 42 tcp 40 [0 0 0 0] ------- [10:1 26:2 32 0] [0 0] 0 0
r 1.000000000 _10_ RTR  --- 42 tcp 40 [0 0 0 0] ------- [10:1 26:2 32 0] [0 0] 0 0
s 1.000000000 _10_ RTR  --- 42 tcp 60 [0 0 0 0] ------- [10:1 26:2 32 26] [0 0] 0 0
s 1.000000000 _1_ AGT  --- 43 tcp 40 [0 0 0 0] ------- [1:3 24:1 32 0] [0 0] 0 0
r 1.000000000 _1_ RTR  --- 43 tcp 40 [0 0 0 0] ------- [1:3 24:1 32 0] [0 0] 0 0
s 1.000000000 _8_ AGT  --- 44 tcp 40 [0 0 0 0] ------- [8:1 28:3 32 0] [0 0] 0 0
r 1.000000000 _8_ RTR  --- 44 tcp 40 [0 0 0 0] ------- [8:1 28:3 32 0] [0 0] 0 0
s 1.000000000 _8_ AGT  --- 45 tcp 40 [0 0 0 0] ------- [8:2 10:2 32 0] [0 0] 0 0
r 1.000000000 _8_ RTR  --- 45 tcp 40 [0 0 0 0] ------- [8:2 10:2 32 0] [0 0] 0 0
r 1.007141012 _5_ AGT  --- 33 tcp 60 [13a 5 2 800] ------- [2:2 5:3 32 5] [0 0] 1 0
s 1.007141012 _5_ AGT  --- 46 ack 40 [0 0 0 0] ------- [5:3 2:2 32 0] [0 0] 0 0
r 1.007141012 _5_ RTR  --- 46 ack 40 [0 0 0 0] ------- [5:3 2:2 32 0] [0 0] 0 0
r 1.015787452 _26_ AGT  --- 42 tcp 60 [13a 1a a 800] ------- [10:1 26:2 32 26] [0 0] 1 0
s 1.015787452 _26_ AGT  --- 47 ack 40 [0 0 0 0] ------- [26:2 10:1 32 0] [0 0] 0 0
r 1.015787452 _26_ RTR  --- 47 ack 40 [0 0 0 0] ------- [26:2 10:1 32 0] [0 0] 0 0
r 1.019753798 _19_ AGT  --- 17 tcp 60 [13a 13 1 800] ------- [1:0 19:0 32 19] [0 0] 1 0
s 1.019753798 _19_ AGT  --- 48 ack 40 [0 0 0 0] ------- [19:0 1:0 32 0] [0 0] 0 0
r 1.019753798 _19_ RTR  --- 48 ack 40 [0 0 0 0] ------- [19:0 1:0 32 0] [0 0] 0 0
r 1.023639754 _27_ AGT  --- 25 tcp 60 [13a 1b a 800] ------- [10:0 27:2 32 27] [0 0] 1 0
s 1.023639754 _27_ AGT  --- 49 ack 40 [0 0 0 0] ------- [27:2 10:0 32 0] [0 0] 0 0
r 1.023639754 _27_ RTR  --- 49 ack 40 [0 0 0 0] ------- [27:2 10:0 32 0] [0 0] 0 0
r 1.025885214 _17_ AGT  --- 18 tcp 60 [13a 11 1a 800] ------- [26:0 17:0 32 17] [0 0] 1 0
s 1.025885214 _17_ AGT  --- 50 ack 40 [0 0 0 0] ------- [17:0 26:0 32 0] [0 0] 0 0
r 1.025885214 _17_ RTR  --- 50 ack 40 [0 0 0 0] ------- [17:0 26:0 32 0] [0 0] 0 0
s 1.025885214 _17_ RTR  --- 50 ack 60 [0 0 0 0] ------- [17:0 26:0 32 26] [0 0] 0 0
r 1.028230395 _26_ AGT  --- 50 ack 60 [13a 1a 11 800] ------- [17:0 26:0 32 26] [0 0] 1 0
s 1.028230395 _26_ AGT  --- 51 tcp 1040 [0 0 0 0] ------- [26:0 17:0 32 0] [1 0] 0 0
r 1.028230395 _26_ RTR  --- 51 tcp 1040 [0 0 0 0] ------- [26:0 17:0 32 0] [1 0] 0 0
s 1.028230395 _26_ RTR  --- 51 tcp 1060 [0 0 0 0] ------- [26:0 17:0 32 17] [1 0] 0 0
s 1.028230395 _26_ AGT  --- 52 tcp 1040 [0 0 0 0] ------- [26:0 17:0 32 0] [2 0] 0 0
r 1.028230395 _26_ RTR  --- 52 tcp 1040 [0 0 0 0] ------- [26:0 17:0 32 0] [2 0] 0 0
s 1.028230395 _26_ RTR  --- 52 tcp 1060 [0 0 0 0] ------- [26:0 17:0 32 17] [2 0] 0 0
r 1.032532523 _23_ AGT  --- 27 tcp 60 [13a 17 5 800] ------- [5:2 23:0 32 23] [0 0] 1 0
s 1.032532523 _23_ AGT  --- 53 ack 40 [0 0 0 0] ------- [23:0 5:2 32 0] [0 0] 0 0
r 1.032532523 _23_ RTR  --- 53 ack 40 [0 0 0 0] ------- [23:0 5:2 32 0] [0 0] 0 0
s 1.032532523 _23_ RTR  --- 53 ack 60 [0 0 0 0] ------- [23:0 5:2 32 5] [0 0] 0 0
r 1.034938877 _5_ AGT  --- 53 ack 60 [13a 5 17 800] ------- [23:0 5:2 32 5] [0 0] 1 0